 Entering Gaussian System, Link 0=g09
 Initial command:
 /share/apps/g09/l1.exe /state/partition1/Gau-13082.inp -scrdir=/state/partition1/
 Entering Link 1 = /share/apps/g09/l1.exe PID=     13083.
  
 Copyright (c) 1988,1990,1992,1993,1995,1998,2003,2009,2010,
            Gaussian, Inc.  All Rights Reserved.
  
 This is part of the Gaussian(R) 09 program.  It is based on
 the Gaussian(R) 03 system (copyright 2003, Gaussian, Inc.),
 the Gaussian(R) 98 system (copyright 1998, Gaussian, Inc.),
 the Gaussian(R) 94 system (copyright 1995, Gaussian, Inc.),
 the Gaussian 92(TM) system (copyright 1992, Gaussian, Inc.),
 the Gaussian 90(TM) system (copyright 1990, Gaussian, Inc.),
 the Gaussian 88(TM) system (copyright 1988, Gaussian, Inc.),
 the Gaussian 86(TM) system (copyright 1986, Carnegie Mellon
 University), and the Gaussian 82(TM) system (copyright 1983,
 Carnegie Mellon University). Gaussian is a federally registered
 trademark of Gaussian, Inc.
  
 This software contains proprietary and confidential information,
 including trade secrets, belonging to Gaussian, Inc.
  
 This software is provided under written license and may be
 used, copied, transmitted, or stored only in accord with that
 written license.
  
 The following legend is applicable only to US Government
 contracts under FAR:
  
                    RESTRICTED RIGHTS LEGEND
  
 Use, reproduction and disclosure by the US Government is
 subject to restrictions as set forth in subparagraphs (a)
 and (c) of the Commercial Computer Software - Restricted
 Rights clause in FAR 52.227-19.
  
 Gaussian, Inc.
 340 Quinnipiac St., Bldg. 40, Wallingford CT 06492
  
  
 ---------------------------------------------------------------
 Warning -- This program may not be used in any manner that
 competes with the business of Gaussian, Inc. or will provide
 assistance to any competitor of Gaussian, Inc.  The licensee
 of this program is prohibited from giving any competitor of
 Gaussian, Inc. access to this program.  By using this program,
 the user acknowledges that Gaussian, Inc. is engaged in the
 business of creating and licensing software in the field of
 computational chemistry and represents and warrants to the
 licensee that it is not a competitor of Gaussian, Inc. and that
 it will not use this program in any manner prohibited above.
 ---------------------------------------------------------------
  

 Cite this work as:
 Gaussian 09, Revision B.01,
 M. J. Frisch, G. W. Trucks, H. B. Schlegel, G. E. Scuseria, 
 M. A. Robb, J. R. Cheeseman, G. Scalmani, V. Barone, B. Mennucci, 
 G. A. Petersson, H. Nakatsuji, M. Caricato, X. Li, H. P. Hratchian, 
 A. F. Izmaylov, J. Bloino, G. Zheng, J. L. Sonnenberg, M. Hada, 
 M. Ehara, K. Toyota, R. Fukuda, J. Hasegawa, M. Ishida, T. Nakajima, 
 Y. Honda, O. Kitao, H. Nakai, T. Vreven, J. A. Montgomery, Jr., 
 J. E. Peralta, F. Ogliaro, M. Bearpark, J. J. Heyd, E. Brothers, 
 K. N. Kudin, V. N. Staroverov, T. Keith, R. Kobayashi, J. Normand, 
 K. Raghavachari, A. Rendell, J. C. Burant, S. S. Iyengar, J. Tomasi, 
 M. Cossi, N. Rega, J. M. Millam, M. Klene, J. E. Knox, J. B. Cross, 
 V. Bakken, C. Adamo, J. Jaramillo, R. Gomperts, R. E. Stratmann, 
 O. Yazyev, A. J. Austin, R. Cammi, C. Pomelli, J. W. Ochterski, 
 R. L. Martin, K. Morokuma, V. G. Zakrzewski, G. A. Voth, 
 P. Salvador, J. J. Dannenberg, S. Dapprich, A. D. Daniels, 
 O. Farkas, J. B. Foresman, J. V. Ortiz, J. Cioslowski, 
 and D. J. Fox, Gaussian, Inc., Wallingford CT, 2010.
 
 ******************************************
 Gaussian 09:  EM64L-G09RevB.01 12-Aug-2010
                13-Sep-2012 
 ******************************************
 %chk=NOD_iso_150_275_s2.chk
 %mem=2500MB
 %nprocshared=8
 Will use up to    8 processors via shared memory.
 ----------------------------------------------------------------------
 # ub3lyp chkbasis scf=(qc,maxcycle=999) guess=read geom=allcheckpoint 
 opt=(modredundant,maxcycle=200)
 ----------------------------------------------------------------------
 1/6=200,14=-1,18=120,19=15,26=3,29=7,38=1/1,3;
 2/9=110,12=2,40=1/2;
 3/5=7,6=2,11=2,14=-4,16=1,25=1,30=1,67=1,71=1,74=-5,116=2/1,2,3;
 4/5=1/1;
 5/5=2,7=999,8=3,38=6/8;
 6/7=2,8=2,9=2,10=2,28=1/1;
 7//1,2,3,16;
 1/6=200,14=-1,18=20,19=15/3(2);
 2/9=110/2;
 99//99;
 2/9=110/2;
 3/5=7,6=1,11=2,14=-2,16=1,25=1,30=1,71=1,74=-5,82=7,116=2/1,2,3;
 4/5=5,16=3/1;
 5/5=2,7=999,8=3,38=5/8;
 7//1,2,3,16;
 1/6=200,14=-1,18=20,19=15/3(-5);
 2/9=110/2;
 6/7=2,8=2,9=2,10=2,19=2,28=1/1;
 99/9=1/99;
 --------------------------------------------------------------------
 NOD_iso_150_250_s1 FePImOONO wavefunction from broken-symmetry guess
 --------------------------------------------------------------------
 Redundant internal coordinates taken from checkpoint file:
 NOD_iso_150_275_s2.chk
 Charge =  0 Multiplicity = 2
 Fe,0,0.0107233052,-0.0278410241,-0.0006702795
 N,0,0.0282213735,-0.0116254192,2.0215200798
 N,0,2.0324748951,0.0031705162,0.0062799451
 N,0,0.0072865418,-0.1425730837,-2.0100543627
 N,0,-1.9960070233,-0.1596281162,0.0021916497
 C,0,-1.0834232192,-0.2792951531,-2.8285086823
 C,0,-0.667220056,-0.2727469549,-4.2086783738
 C,0,0.6830379543,-0.1171665919,-4.2117056858
 C,0,-2.8120798837,-0.0497227973,1.0950700874
 C,0,-4.1944927494,-0.1184196222,0.6859472797
 C,0,-4.1978849635,-0.2734427094,-0.6634629644
 C,0,-2.8185896158,-0.2855054388,-1.0845396941
 C,0,1.1224788594,0.0097573047,2.8422931633
 C,0,0.7045630086,0.0959183398,4.2209507197
 C,0,-0.6525623252,0.1476777887,4.2164799919
 C,0,2.8423877259,0.0998388939,-1.0931971163
 C,0,4.223932839,0.1790654629,-0.68265324
 C,0,4.2337602515,0.1263400624,0.6746514605
 C,0,2.85793717,0.0268033469,1.0977406954
 C,0,2.4441005672,0.002227528,2.421506306
 H,0,5.0625488254,0.2684443122,-1.3576244721
 H,0,5.0819247241,0.1657751834,1.3423143215
 H,0,3.211879914,0.0286033946,3.1853737023
 H,0,1.3753006153,0.1272922631,5.0670158433
 H,0,-5.0386937516,-0.0529412751,1.3566525437
 H,0,-5.0454344588,-0.3576764799,-1.3276240212
 C,0,-1.0679242415,0.0793374522,2.8353809774
 C,0,-2.3899035914,0.0732515597,2.4120794824
 C,0,1.0982174052,-0.0399932809,-2.8324151237
 C,0,-2.4008099709,-0.3697600844,-2.4040263667
 C,0,2.4165272694,0.0849482926,-2.4141838646
 H,0,-3.1653829636,-0.4660588752,-3.1654261757
 H,0,-1.3346703785,-0.360585015,-5.0533359757
 H,0,1.3492521948,-0.0521212545,-5.0594702625
 H,0,3.1754382732,0.1690304076,-3.1827190372
 H,0,-3.1563766216,0.154436935,3.1735193617
 H,0,-1.3245208339,0.2265767244,5.058531757
 N,0,0.0983358977,-2.1161242683,0.0743986267
 C,0,0.8795380056,-2.8815098794,-0.6613749484
 N,0,0.6842715716,-4.1847709834,-0.3511718325
 C,0,-0.276494109,-4.2495358252,0.6385823144
 C,0,-0.6287909023,-2.9550959388,0.8907784985
 H,0,1.5779082636,-2.5374750072,-1.4050878307
 H,0,1.1604414547,-4.9654372302,-0.7733612933
 H,0,-0.6105175481,-5.1816429441,1.0596987029
 H,0,-1.3469975997,-2.5718582837,1.5939637445
 O,0,0.0269243263,1.7883598165,0.0436562636
 O,0,-0.9865738985,2.4103982437,-0.8706150698
 N,0,-0.5089858231,3.206105981,-1.9445065144
 O,0,0.6528632959,3.2871237264,-2.0765643313
 Recover connectivity data from disk.
 The following ModRedundant input section has been read:
 B      47      48 1.5000 F                                                    
 B      47      49 2.7500 F                                                    
 Iteration  1 RMS(Cart)=  0.01952231 RMS(Int)=  0.01757174
 Iteration  2 RMS(Cart)=  0.01537258 RMS(Int)=  0.01325801
 Iteration  3 RMS(Cart)=  0.01132825 RMS(Int)=  0.01208736
 Iteration  4 RMS(Cart)=  0.00038996 RMS(Int)=  0.01208644
 Iteration  5 RMS(Cart)=  0.00004736 RMS(Int)=  0.01208643
 Iteration  6 RMS(Cart)=  0.00000533 RMS(Int)=  0.01208643
 Iteration  7 RMS(Cart)=  0.00000061 RMS(Int)=  0.01208643
 Iteration  1 RMS(Cart)=  0.01309234 RMS(Int)=  0.00516980
 Iteration  2 RMS(Cart)=  0.00566785 RMS(Int)=  0.00579688
 Iteration  3 RMS(Cart)=  0.00252409 RMS(Int)=  0.00638092
 Iteration  4 RMS(Cart)=  0.00113842 RMS(Int)=  0.00668731
 Iteration  5 RMS(Cart)=  0.00051650 RMS(Int)=  0.00683362
 Iteration  6 RMS(Cart)=  0.00023498 RMS(Int)=  0.00690156
 Iteration  7 RMS(Cart)=  0.00010704 RMS(Int)=  0.00693278
 Iteration  8 RMS(Cart)=  0.00004879 RMS(Int)=  0.00694707
 Iteration  9 RMS(Cart)=  0.00002224 RMS(Int)=  0.00695359
 Iteration 10 RMS(Cart)=  0.00001014 RMS(Int)=  0.00695657
 Iteration 11 RMS(Cart)=  0.00000462 RMS(Int)=  0.00695793
 Iteration 12 RMS(Cart)=  0.00000211 RMS(Int)=  0.00695855
 Iteration 13 RMS(Cart)=  0.00000096 RMS(Int)=  0.00695883

 GradGradGradGradGradGradGradGradGradGradGradGradGradGradGradGradGradGrad
 Berny optimization.
 Initialization pass.
                           ----------------------------
                           !    Initial Parameters    !
                           ! (Angstroms and Degrees)  !
 --------------------------                            --------------------------
 ! Name  Definition              Value          Derivative Info.                !
 --------------------------------------------------------------------------------
 ! R1    R(1,2)                  2.0223         estimate D2E/DX2                !
 ! R2    R(1,3)                  2.022          estimate D2E/DX2                !
 ! R3    R(1,4)                  2.0127         estimate D2E/DX2                !
 ! R4    R(1,5)                  2.0111         estimate D2E/DX2                !
 ! R5    R(1,38)                 2.0915         estimate D2E/DX2                !
 ! R6    R(1,47)                 1.8168         estimate D2E/DX2                !
 ! R7    R(2,13)                 1.368          estimate D2E/DX2                !
 ! R8    R(2,27)                 1.3683         estimate D2E/DX2                !
 ! R9    R(3,16)                 1.369          estimate D2E/DX2                !
 ! R10   R(3,19)                 1.3687         estimate D2E/DX2                !
 ! R11   R(4,6)                  1.3705         estimate D2E/DX2                !
 ! R12   R(4,29)                 1.37           estimate D2E/DX2                !
 ! R13   R(5,9)                  1.3684         estimate D2E/DX2                !
 ! R14   R(5,12)                 1.3687         estimate D2E/DX2                !
 ! R15   R(6,7)                  1.4416         estimate D2E/DX2                !
 ! R16   R(6,30)                 1.387          estimate D2E/DX2                !
 ! R17   R(7,8)                  1.3592         estimate D2E/DX2                !
 ! R18   R(7,33)                 1.0801         estimate D2E/DX2                !
 ! R19   R(8,29)                 1.4425         estimate D2E/DX2                !
 ! R20   R(8,34)                 1.0802         estimate D2E/DX2                !
 ! R21   R(9,10)                 1.4433         estimate D2E/DX2                !
 ! R22   R(9,28)                 1.3885         estimate D2E/DX2                !
 ! R23   R(10,11)                1.3583         estimate D2E/DX2                !
 ! R24   R(10,25)                1.0802         estimate D2E/DX2                !
 ! R25   R(11,12)                1.4422         estimate D2E/DX2                !
 ! R26   R(11,26)                1.0801         estimate D2E/DX2                !
 ! R27   R(12,30)                1.3866         estimate D2E/DX2                !
 ! R28   R(13,14)                1.4432         estimate D2E/DX2                !
 ! R29   R(13,20)                1.387          estimate D2E/DX2                !
 ! R30   R(14,15)                1.3581         estimate D2E/DX2                !
 ! R31   R(14,24)                1.0801         estimate D2E/DX2                !
 ! R32   R(15,27)                1.4438         estimate D2E/DX2                !
 ! R33   R(15,37)                1.0802         estimate D2E/DX2                !
 ! R34   R(16,17)                1.4434         estimate D2E/DX2                !
 ! R35   R(16,31)                1.388          estimate D2E/DX2                !
 ! R36   R(17,18)                1.3584         estimate D2E/DX2                !
 ! R37   R(17,21)                1.0802         estimate D2E/DX2                !
 ! R38   R(18,19)                1.4428         estimate D2E/DX2                !
 ! R39   R(18,22)                1.0801         estimate D2E/DX2                !
 ! R40   R(19,20)                1.3872         estimate D2E/DX2                !
 ! R41   R(20,23)                1.0834         estimate D2E/DX2                !
 ! R42   R(27,28)                1.3881         estimate D2E/DX2                !
 ! R43   R(28,36)                1.0834         estimate D2E/DX2                !
 ! R44   R(29,31)                1.3887         estimate D2E/DX2                !
 ! R45   R(30,32)                1.0833         estimate D2E/DX2                !
 ! R46   R(31,35)                1.0834         estimate D2E/DX2                !
 ! R47   R(38,39)                1.3181         estimate D2E/DX2                !
 ! R48   R(38,42)                1.3781         estimate D2E/DX2                !
 ! R49   R(39,40)                1.3538         estimate D2E/DX2                !
 ! R50   R(39,43)                1.0767         estimate D2E/DX2                !
 ! R51   R(40,41)                1.3809         estimate D2E/DX2                !
 ! R52   R(40,44)                1.0072         estimate D2E/DX2                !
 ! R53   R(41,42)                1.365          estimate D2E/DX2                !
 ! R54   R(41,45)                1.076          estimate D2E/DX2                !
 ! R55   R(42,46)                1.0757         estimate D2E/DX2                !
 ! R56   R(47,48)                1.5            Frozen                          !
 ! R57   R(47,49)                2.75           Frozen                          !
 ! R58   R(48,49)                1.5126         estimate D2E/DX2                !
 ! R59   R(49,50)                1.1745         estimate D2E/DX2                !
 ! A1    A(2,1,3)               89.3003         estimate D2E/DX2                !
 ! A2    A(2,1,5)               90.4433         estimate D2E/DX2                !
 ! A3    A(2,1,38)              88.3813         estimate D2E/DX2                !
 ! A4    A(2,1,47)              88.1382         estimate D2E/DX2                !
 ! A5    A(3,1,4)               90.3446         estimate D2E/DX2                !
 ! A6    A(3,1,38)              88.4703         estimate D2E/DX2                !
 ! A7    A(3,1,47)              88.6057         estimate D2E/DX2                !
 ! A8    A(4,1,5)               89.7697         estimate D2E/DX2                !
 ! A9    A(4,1,38)              88.796          estimate D2E/DX2                !
 ! A10   A(4,1,47)              94.6667         estimate D2E/DX2                !
 ! A11   A(5,1,38)              88.643          estimate D2E/DX2                !
 ! A12   A(5,1,47)              94.2652         estimate D2E/DX2                !
 ! A13   A(1,2,13)             127.3706         estimate D2E/DX2                !
 ! A14   A(1,2,27)             126.0412         estimate D2E/DX2                !
 ! A15   A(13,2,27)            106.4327         estimate D2E/DX2                !
 ! A16   A(1,3,16)             126.147          estimate D2E/DX2                !
 ! A17   A(1,3,19)             127.3043         estimate D2E/DX2                !
 ! A18   A(16,3,19)            106.4056         estimate D2E/DX2                !
 ! A19   A(1,4,6)              127.105          estimate D2E/DX2                !
 ! A20   A(1,4,29)             126.4167         estimate D2E/DX2                !
 ! A21   A(6,4,29)             106.4234         estimate D2E/DX2                !
 ! A22   A(1,5,9)              126.2261         estimate D2E/DX2                !
 ! A23   A(1,5,12)             127.1986         estimate D2E/DX2                !
 ! A24   A(9,5,12)             106.4446         estimate D2E/DX2                !
 ! A25   A(4,6,7)              109.9705         estimate D2E/DX2                !
 ! A26   A(4,6,30)             125.4251         estimate D2E/DX2                !
 ! A27   A(7,6,30)             124.5769         estimate D2E/DX2                !
 ! A28   A(6,7,8)              106.8261         estimate D2E/DX2                !
 ! A29   A(6,7,33)             124.7445         estimate D2E/DX2                !
 ! A30   A(8,7,33)             128.4219         estimate D2E/DX2                !
 ! A31   A(7,8,29)             106.8534         estimate D2E/DX2                !
 ! A32   A(7,8,34)             128.4149         estimate D2E/DX2                !
 ! A33   A(29,8,34)            124.7303         estimate D2E/DX2                !
 ! A34   A(5,9,10)             109.938          estimate D2E/DX2                !
 ! A35   A(5,9,28)             125.6859         estimate D2E/DX2                !
 ! A36   A(10,9,28)            124.3545         estimate D2E/DX2                !
 ! A37   A(9,10,11)            106.8239         estimate D2E/DX2                !
 ! A38   A(9,10,25)            124.7267         estimate D2E/DX2                !
 ! A39   A(11,10,25)           128.4493         estimate D2E/DX2                !
 ! A40   A(10,11,12)           106.7758         estimate D2E/DX2                !
 ! A41   A(10,11,26)           128.4452         estimate D2E/DX2                !
 ! A42   A(12,11,26)           124.7716         estimate D2E/DX2                !
 ! A43   A(5,12,11)            110.01           estimate D2E/DX2                !
 ! A44   A(5,12,30)            125.4536         estimate D2E/DX2                !
 ! A45   A(11,12,30)           124.5066         estimate D2E/DX2                !
 ! A46   A(2,13,14)            110.0259         estimate D2E/DX2                !
 ! A47   A(2,13,20)            125.4551         estimate D2E/DX2                !
 ! A48   A(14,13,20)           124.4762         estimate D2E/DX2                !
 ! A49   A(13,14,15)           106.768          estimate D2E/DX2                !
 ! A50   A(13,14,24)           124.7631         estimate D2E/DX2                !
 ! A51   A(15,14,24)           128.4617         estimate D2E/DX2                !
 ! A52   A(14,15,27)           106.7871         estimate D2E/DX2                !
 ! A53   A(14,15,37)           128.4505         estimate D2E/DX2                !
 ! A54   A(27,15,37)           124.7623         estimate D2E/DX2                !
 ! A55   A(3,16,17)            109.9802         estimate D2E/DX2                !
 ! A56   A(3,16,31)            125.5963         estimate D2E/DX2                !
 ! A57   A(17,16,31)           124.3978         estimate D2E/DX2                !
 ! A58   A(16,17,18)           106.7978         estimate D2E/DX2                !
 ! A59   A(16,17,21)           124.7419         estimate D2E/DX2                !
 ! A60   A(18,17,21)           128.4594         estimate D2E/DX2                !
 ! A61   A(17,18,19)           106.7851         estimate D2E/DX2                !
 ! A62   A(17,18,22)           128.4554         estimate D2E/DX2                !
 ! A63   A(19,18,22)           124.7518         estimate D2E/DX2                !
 ! A64   A(3,19,18)            110.0262         estimate D2E/DX2                !
 ! A65   A(3,19,20)            125.5057         estimate D2E/DX2                !
 ! A66   A(18,19,20)           124.439          estimate D2E/DX2                !
 ! A67   A(13,20,19)           125.0075         estimate D2E/DX2                !
 ! A68   A(13,20,23)           117.4678         estimate D2E/DX2                !
 ! A69   A(19,20,23)           117.4519         estimate D2E/DX2                !
 ! A70   A(2,27,15)            109.9772         estimate D2E/DX2                !
 ! A71   A(2,27,28)            125.5401         estimate D2E/DX2                !
 ! A72   A(15,27,28)           124.4637         estimate D2E/DX2                !
 ! A73   A(9,28,27)            125.3951         estimate D2E/DX2                !
 ! A74   A(9,28,36)            117.268          estimate D2E/DX2                !
 ! A75   A(27,28,36)           117.3285         estimate D2E/DX2                !
 ! A76   A(4,29,8)             109.9234         estimate D2E/DX2                !
 ! A77   A(4,29,31)            125.5838         estimate D2E/DX2                !
 ! A78   A(8,29,31)            124.4733         estimate D2E/DX2                !
 ! A79   A(6,30,12)            124.9893         estimate D2E/DX2                !
 ! A80   A(6,30,32)            117.4538         estimate D2E/DX2                !
 ! A81   A(12,30,32)           117.4887         estimate D2E/DX2                !
 ! A82   A(16,31,29)           125.3699         estimate D2E/DX2                !
 ! A83   A(16,31,35)           117.3473         estimate D2E/DX2                !
 ! A84   A(29,31,35)           117.2805         estimate D2E/DX2                !
 ! A85   A(1,38,39)            125.7726         estimate D2E/DX2                !
 ! A86   A(1,38,42)            127.3756         estimate D2E/DX2                !
 ! A87   A(39,38,42)           106.8511         estimate D2E/DX2                !
 ! A88   A(38,39,40)           110.218          estimate D2E/DX2                !
 ! A89   A(38,39,43)           125.7651         estimate D2E/DX2                !
 ! A90   A(40,39,43)           124.0169         estimate D2E/DX2                !
 ! A91   A(39,40,41)           108.0429         estimate D2E/DX2                !
 ! A92   A(39,40,44)           125.5851         estimate D2E/DX2                !
 ! A93   A(41,40,44)           126.372          estimate D2E/DX2                !
 ! A94   A(40,41,42)           105.5163         estimate D2E/DX2                !
 ! A95   A(40,41,45)           122.4889         estimate D2E/DX2                !
 ! A96   A(42,41,45)           131.9947         estimate D2E/DX2                !
 ! A97   A(38,42,41)           109.3716         estimate D2E/DX2                !
 ! A98   A(38,42,46)           121.5097         estimate D2E/DX2                !
 ! A99   A(41,42,46)           129.1187         estimate D2E/DX2                !
 ! A100  A(1,47,48)            113.1837         estimate D2E/DX2                !
 ! A101  A(47,48,49)           131.8023         estimate D2E/DX2                !
 ! A102  A(48,49,50)           117.2863         estimate D2E/DX2                !
 ! D1    D(3,1,2,13)            -0.0972         estimate D2E/DX2                !
 ! D2    D(3,1,2,27)           174.7459         estimate D2E/DX2                !
 ! D3    D(5,1,2,13)           177.022          estimate D2E/DX2                !
 ! D4    D(5,1,2,27)            -8.1348         estimate D2E/DX2                !
 ! D5    D(38,1,2,13)           88.3921         estimate D2E/DX2                !
 ! D6    D(38,1,2,27)          -96.7647         estimate D2E/DX2                !
 ! D7    D(47,1,2,13)          -88.7249         estimate D2E/DX2                !
 ! D8    D(47,1,2,27)           86.1183         estimate D2E/DX2                !
 ! D9    D(13,2,4,6)           173.9371         estimate D2E/DX2                !
 ! D10   D(13,2,4,29)           -7.0066         estimate D2E/DX2                !
 ! D11   D(27,2,4,6)            -9.14           estimate D2E/DX2                !
 ! D12   D(27,2,4,29)          169.9162         estimate D2E/DX2                !
 ! D13   D(2,1,3,16)          -175.1781         estimate D2E/DX2                !
 ! D14   D(2,1,3,19)            -0.1255         estimate D2E/DX2                !
 ! D15   D(4,1,3,16)             7.6362         estimate D2E/DX2                !
 ! D16   D(4,1,3,19)          -177.3112         estimate D2E/DX2                !
 ! D17   D(38,1,3,16)           96.4226         estimate D2E/DX2                !
 ! D18   D(38,1,3,19)          -88.5249         estimate D2E/DX2                !
 ! D19   D(47,1,3,16)          -87.0235         estimate D2E/DX2                !
 ! D20   D(47,1,3,19)           88.029          estimate D2E/DX2                !
 ! D21   D(16,3,5,9)          -169.2399         estimate D2E/DX2                !
 ! D22   D(16,3,5,12)            8.195          estimate D2E/DX2                !
 ! D23   D(19,3,5,9)             7.9477         estimate D2E/DX2                !
 ! D24   D(19,3,5,12)         -174.6175         estimate D2E/DX2                !
 ! D25   D(3,1,4,6)            176.1512         estimate D2E/DX2                !
 ! D26   D(3,1,4,29)            -6.9165         estimate D2E/DX2                !
 ! D27   D(5,1,4,6)             -0.9591         estimate D2E/DX2                !
 ! D28   D(5,1,4,29)           175.9733         estimate D2E/DX2                !
 ! D29   D(38,1,4,6)            87.6884         estimate D2E/DX2                !
 ! D30   D(38,1,4,29)          -95.3792         estimate D2E/DX2                !
 ! D31   D(47,1,4,6)           -95.2196         estimate D2E/DX2                !
 ! D32   D(47,1,4,29)           81.7127         estimate D2E/DX2                !
 ! D33   D(2,1,5,9)              8.0734         estimate D2E/DX2                !
 ! D34   D(2,1,5,12)          -176.6552         estimate D2E/DX2                !
 ! D35   D(4,1,5,9)           -174.7551         estimate D2E/DX2                !
 ! D36   D(4,1,5,12)             0.5163         estimate D2E/DX2                !
 ! D37   D(38,1,5,9)            96.4437         estimate D2E/DX2                !
 ! D38   D(38,1,5,12)          -88.2849         estimate D2E/DX2                !
 ! D39   D(47,1,5,9)           -80.0927         estimate D2E/DX2                !
 ! D40   D(47,1,5,12)           95.1788         estimate D2E/DX2                !
 ! D41   D(2,1,38,39)         -135.072          estimate D2E/DX2                !
 ! D42   D(2,1,38,42)           44.5823         estimate D2E/DX2                !
 ! D43   D(3,1,38,39)          -45.729          estimate D2E/DX2                !
 ! D44   D(3,1,38,42)          133.9253         estimate D2E/DX2                !
 ! D45   D(4,1,38,39)           44.6479         estimate D2E/DX2                !
 ! D46   D(4,1,38,42)         -135.6978         estimate D2E/DX2                !
 ! D47   D(5,1,38,39)          134.446          estimate D2E/DX2                !
 ! D48   D(5,1,38,42)          -45.8997         estimate D2E/DX2                !
 ! D49   D(39,38,47,48)         93.7338         estimate D2E/DX2                !
 ! D50   D(42,38,47,48)        -89.7128         estimate D2E/DX2                !
 ! D51   D(2,1,47,48)         -132.8461         estimate D2E/DX2                !
 ! D52   D(3,1,47,48)          137.8089         estimate D2E/DX2                !
 ! D53   D(4,1,47,48)           47.5769         estimate D2E/DX2                !
 ! D54   D(5,1,47,48)          -42.5402         estimate D2E/DX2                !
 ! D55   D(1,2,13,14)          176.5774         estimate D2E/DX2                !
 ! D56   D(1,2,13,20)           -1.1257         estimate D2E/DX2                !
 ! D57   D(27,2,13,14)           0.9231         estimate D2E/DX2                !
 ! D58   D(27,2,13,20)        -176.78           estimate D2E/DX2                !
 ! D59   D(1,2,27,15)         -176.2867         estimate D2E/DX2                !
 ! D60   D(1,2,27,28)            5.2467         estimate D2E/DX2                !
 ! D61   D(13,2,27,15)          -0.5577         estimate D2E/DX2                !
 ! D62   D(13,2,27,28)        -179.0243         estimate D2E/DX2                !
 ! D63   D(1,3,16,17)          176.2476         estimate D2E/DX2                !
 ! D64   D(1,3,16,31)           -5.5358         estimate D2E/DX2                !
 ! D65   D(19,3,16,17)           0.3483         estimate D2E/DX2                !
 ! D66   D(19,3,16,31)         178.5649         estimate D2E/DX2                !
 ! D67   D(1,3,19,18)         -176.5011         estimate D2E/DX2                !
 ! D68   D(1,3,19,20)            1.6024         estimate D2E/DX2                !
 ! D69   D(16,3,19,18)          -0.6643         estimate D2E/DX2                !
 ! D70   D(16,3,19,20)         177.4393         estimate D2E/DX2                !
 ! D71   D(1,4,6,7)            177.8631         estimate D2E/DX2                !
 ! D72   D(1,4,6,30)            -0.2931         estimate D2E/DX2                !
 ! D73   D(29,4,6,7)             0.4363         estimate D2E/DX2                !
 ! D74   D(29,4,6,30)         -177.7198         estimate D2E/DX2                !
 ! D75   D(1,4,29,8)          -177.5714         estimate D2E/DX2                !
 ! D76   D(1,4,29,31)            3.9833         estimate D2E/DX2                !
 ! D77   D(6,4,29,8)            -0.1216         estimate D2E/DX2                !
 ! D78   D(6,4,29,31)         -178.5669         estimate D2E/DX2                !
 ! D79   D(1,5,9,10)           176.5115         estimate D2E/DX2                !
 ! D80   D(1,5,9,28)            -5.125          estimate D2E/DX2                !
 ! D81   D(12,5,9,10)            0.4373         estimate D2E/DX2                !
 ! D82   D(12,5,9,28)          178.8008         estimate D2E/DX2                !
 ! D83   D(1,5,12,11)         -176.8426         estimate D2E/DX2                !
 ! D84   D(1,5,12,30)            1.2415         estimate D2E/DX2                !
 ! D85   D(9,5,12,11)           -0.8185         estimate D2E/DX2                !
 ! D86   D(9,5,12,30)          177.2656         estimate D2E/DX2                !
 ! D87   D(4,6,7,8)             -0.6006         estimate D2E/DX2                !
 ! D88   D(4,6,7,33)          -179.673          estimate D2E/DX2                !
 ! D89   D(30,6,7,8)           177.5745         estimate D2E/DX2                !
 ! D90   D(30,6,7,33)           -1.4978         estimate D2E/DX2                !
 ! D91   D(4,6,30,12)            2.5265         estimate D2E/DX2                !
 ! D92   D(4,6,30,32)          179.439          estimate D2E/DX2                !
 ! D93   D(7,6,30,12)         -175.3686         estimate D2E/DX2                !
 ! D94   D(7,6,30,32)            1.5439         estimate D2E/DX2                !
 ! D95   D(6,7,8,29)             0.4988         estimate D2E/DX2                !
 ! D96   D(6,7,8,34)          -179.0797         estimate D2E/DX2                !
 ! D97   D(33,7,8,29)          179.5258         estimate D2E/DX2                !
 ! D98   D(33,7,8,34)           -0.0527         estimate D2E/DX2                !
 ! D99   D(7,8,29,4)            -0.2516         estimate D2E/DX2                !
 ! D100  D(7,8,29,31)          178.2147         estimate D2E/DX2                !
 ! D101  D(34,8,29,4)          179.3466         estimate D2E/DX2                !
 ! D102  D(34,8,29,31)          -2.1871         estimate D2E/DX2                !
 ! D103  D(5,9,10,11)            0.1233         estimate D2E/DX2                !
 ! D104  D(5,9,10,25)         -179.767          estimate D2E/DX2                !
 ! D105  D(28,9,10,11)        -178.2666         estimate D2E/DX2                !
 ! D106  D(28,9,10,25)           1.8431         estimate D2E/DX2                !
 ! D107  D(5,9,28,27)           -1.2827         estimate D2E/DX2                !
 ! D108  D(5,9,28,36)          179.8059         estimate D2E/DX2                !
 ! D109  D(10,9,28,27)         176.8537         estimate D2E/DX2                !
 ! D110  D(10,9,28,36)          -2.0577         estimate D2E/DX2                !
 ! D111  D(9,10,11,12)          -0.6031         estimate D2E/DX2                !
 ! D112  D(9,10,11,26)        -179.6399         estimate D2E/DX2                !
 ! D113  D(25,10,11,12)        179.2817         estimate D2E/DX2                !
 ! D114  D(25,10,11,26)          0.2449         estimate D2E/DX2                !
 ! D115  D(10,11,12,5)           0.9086         estimate D2E/DX2                !
 ! D116  D(10,11,12,30)       -177.1975         estimate D2E/DX2                !
 ! D117  D(26,11,12,5)         179.9902         estimate D2E/DX2                !
 ! D118  D(26,11,12,30)          1.8841         estimate D2E/DX2                !
 ! D119  D(5,12,30,6)           -3.0285         estimate D2E/DX2                !
 ! D120  D(5,12,30,32)        -179.9401         estimate D2E/DX2                !
 ! D121  D(11,12,30,6)         174.7868         estimate D2E/DX2                !
 ! D122  D(11,12,30,32)         -2.1248         estimate D2E/DX2                !
 ! D123  D(2,13,14,15)          -0.9581         estimate D2E/DX2                !
 ! D124  D(2,13,14,24)         179.9451         estimate D2E/DX2                !
 ! D125  D(20,13,14,15)        176.7723         estimate D2E/DX2                !
 ! D126  D(20,13,14,24)         -2.3245         estimate D2E/DX2                !
 ! D127  D(2,13,20,19)           2.7784         estimate D2E/DX2                !
 ! D128  D(2,13,20,23)         179.5869         estimate D2E/DX2                !
 ! D129  D(14,13,20,19)       -174.6036         estimate D2E/DX2                !
 ! D130  D(14,13,20,23)          2.2049         estimate D2E/DX2                !
 ! D131  D(13,14,15,27)          0.5781         estimate D2E/DX2                !
 ! D132  D(13,14,15,37)       -179.303          estimate D2E/DX2                !
 ! D133  D(24,14,15,27)        179.6305         estimate D2E/DX2                !
 ! D134  D(24,14,15,37)         -0.2506         estimate D2E/DX2                !
 ! D135  D(14,15,27,2)          -0.032          estimate D2E/DX2                !
 ! D136  D(14,15,27,28)        178.4547         estimate D2E/DX2                !
 ! D137  D(37,15,27,2)         179.8547         estimate D2E/DX2                !
 ! D138  D(37,15,27,28)         -1.6586         estimate D2E/DX2                !
 ! D139  D(3,16,17,18)           0.1113         estimate D2E/DX2                !
 ! D140  D(3,16,17,21)        -179.5718         estimate D2E/DX2                !
 ! D141  D(31,16,17,18)       -178.1313         estimate D2E/DX2                !
 ! D142  D(31,16,17,21)          2.1856         estimate D2E/DX2                !
 ! D143  D(3,16,31,29)          -0.4722         estimate D2E/DX2                !
 ! D144  D(3,16,31,35)        -179.9083         estimate D2E/DX2                !
 ! D145  D(17,16,31,29)        177.4965         estimate D2E/DX2                !
 ! D146  D(17,16,31,35)         -1.9397         estimate D2E/DX2                !
 ! D147  D(16,17,18,19)         -0.5001         estimate D2E/DX2                !
 ! D148  D(16,17,18,22)       -179.5173         estimate D2E/DX2                !
 ! D149  D(21,17,18,19)        179.1674         estimate D2E/DX2                !
 ! D150  D(21,17,18,22)          0.1502         estimate D2E/DX2                !
 ! D151  D(17,18,19,3)           0.7448         estimate D2E/DX2                !
 ! D152  D(17,18,19,20)       -177.3833         estimate D2E/DX2                !
 ! D153  D(22,18,19,3)         179.8081         estimate D2E/DX2                !
 ! D154  D(22,18,19,20)          1.68           estimate D2E/DX2                !
 ! D155  D(3,19,20,13)          -3.0312         estimate D2E/DX2                !
 ! D156  D(3,19,20,23)        -179.8401         estimate D2E/DX2                !
 ! D157  D(18,19,20,13)        174.8083         estimate D2E/DX2                !
 ! D158  D(18,19,20,23)         -2.0006         estimate D2E/DX2                !
 ! D159  D(2,27,28,9)            1.1916         estimate D2E/DX2                !
 ! D160  D(2,27,28,36)        -179.8976         estimate D2E/DX2                !
 ! D161  D(15,27,28,9)        -177.0605         estimate D2E/DX2                !
 ! D162  D(15,27,28,36)          1.8503         estimate D2E/DX2                !
 ! D163  D(4,29,31,16)           1.3253         estimate D2E/DX2                !
 ! D164  D(4,29,31,35)        -179.2382         estimate D2E/DX2                !
 ! D165  D(8,29,31,16)        -176.9017         estimate D2E/DX2                !
 ! D166  D(8,29,31,35)           2.5348         estimate D2E/DX2                !
 ! D167  D(1,38,39,40)         179.7264         estimate D2E/DX2                !
 ! D168  D(1,38,39,43)          -0.2308         estimate D2E/DX2                !
 ! D169  D(42,38,39,40)          0.0135         estimate D2E/DX2                !
 ! D170  D(42,38,39,43)       -179.9438         estimate D2E/DX2                !
 ! D171  D(1,38,42,41)        -179.734          estimate D2E/DX2                !
 ! D172  D(1,38,42,46)           0.3116         estimate D2E/DX2                !
 ! D173  D(39,38,42,41)         -0.0271         estimate D2E/DX2                !
 ! D174  D(39,38,42,46)       -179.9815         estimate D2E/DX2                !
 ! D175  D(38,39,40,41)          0.0047         estimate D2E/DX2                !
 ! D176  D(38,39,40,44)        179.9876         estimate D2E/DX2                !
 ! D177  D(43,39,40,41)        179.9629         estimate D2E/DX2                !
 ! D178  D(43,39,40,44)         -0.0542         estimate D2E/DX2                !
 ! D179  D(39,40,41,42)         -0.0209         estimate D2E/DX2                !
 ! D180  D(39,40,41,45)       -179.9942         estimate D2E/DX2                !
 ! D181  D(44,40,41,42)        179.9964         estimate D2E/DX2                !
 ! D182  D(44,40,41,45)          0.0231         estimate D2E/DX2                !
 ! D183  D(40,41,42,38)          0.0294         estimate D2E/DX2                !
 ! D184  D(40,41,42,46)        179.9793         estimate D2E/DX2                !
 ! D185  D(45,41,42,38)        179.999          estimate D2E/DX2                !
 ! D186  D(45,41,42,46)         -0.051          estimate D2E/DX2                !
 ! D187  D(1,47,48,49)        -116.3822         estimate D2E/DX2                !
 ! D188  D(47,48,49,50)          2.6589         estimate D2E/DX2                !
 --------------------------------------------------------------------------------
 Trust Radius=3.00D-01 FncErr=1.00D-07 GrdErr=1.00D-06
 Number of steps in this run=    200 maximum allowed number of steps=    300.
 GradGradGradGradGradGradGradGradGradGradGradGradGradGradGradGradGradGrad

                          Input orientation:                          
 ---------------------------------------------------------------------
 Center     Atomic      Atomic             Coordinates (Angstroms)
 Number     Number       Type             X           Y           Z
 ---------------------------------------------------------------------
      1         26           0        0.027637   -0.034915    0.010718
      2          7           0        0.040236   -0.024396    2.032983
      3          7           0        2.049522   -0.016636    0.022720
      4          7           0        0.028450   -0.144072   -1.998980
      5          7           0       -1.979884   -0.154089    0.008284
      6          6           0       -1.061071   -0.271672   -2.820488
      7          6           0       -0.641422   -0.263928   -4.199608
      8          6           0        0.709791   -0.116833   -4.198886
      9          6           0       -2.797952   -0.042074    1.099456
     10          6           0       -4.179754   -0.100947    0.686750
     11          6           0       -4.180783   -0.252217   -0.663090
     12          6           0       -2.800552   -0.271789   -1.080810
     13          6           0        1.132574   -0.012162    2.856497
     14          6           0        0.711798    0.072816    4.234359
     15          6           0       -0.644961    0.133120    4.226698
     16          6           0        2.862744    0.077975   -1.074492
     17          6           0        4.243741    0.147379   -0.660337
     18          6           0        4.249880    0.090843    0.696836
     19          6           0        2.872416   -0.001209    1.116267
     20          6           0        2.455160   -0.026839    2.438939
     21          1           0        5.084569    0.233347   -1.332996
     22          1           0        5.096623    0.123100    1.366687
     23          1           0        3.221199   -0.007402    3.204760
     24          1           0        1.380626    0.097635    5.082153
     25          1           0       -5.025184   -0.032015    1.355559
     26          1           0       -5.027200   -0.329285   -1.329563
     27          6           0       -1.057328    0.071209    2.844398
     28          6           0       -2.378269    0.074605    2.417836
     29          6           0        1.122035   -0.046082   -2.818371
     30          6           0       -2.380047   -0.355024   -2.399495
     31          6           0        2.440066    0.069412   -2.396557
     32          1           0       -3.143325   -0.444409   -3.163036
     33          1           0       -1.307321   -0.345234   -5.046143
     34          1           0        1.378496   -0.053636   -5.044828
     35          1           0        3.201390    0.150843   -3.162990
     36          1           0       -3.146099    0.158504    3.177613
     37          1           0       -1.318492    0.213916    5.067313
     38          7           0        0.101945   -2.123909    0.080201
     39          6           0        0.880143   -2.892157   -0.655774
     40          7           0        0.675927   -4.195017   -0.349672
     41          6           0       -0.287672   -4.256474    0.637535
     42          6           0       -0.632454   -2.960545    0.892460
     43          1           0        1.582498   -2.550466   -1.396811
     44          1           0        1.148227   -4.977494   -0.772858
     45          1           0       -0.628585   -5.187623    1.055240
     46          1           0       -1.349977   -2.574743    1.594941
     47          8           0        0.055136    1.781020    0.060128
     48          8           0       -0.952143    2.411977   -0.854905
     49          7           0       -0.794280    3.300513   -2.068750
     50          8           0        0.299867    3.537008   -2.424289
 ---------------------------------------------------------------------
                    Distance matrix (angstroms):
                    1          2          3          4          5
     1  Fe   0.000000
     2  N    2.022332   0.000000
     3  N    2.022003   2.842261   0.000000
     4  N    2.012660   4.033756   2.861511   0.000000
     5  N    2.011057   2.863059   4.031776   2.839475   0.000000
     6  C    3.042542   4.982991   4.221927   1.370479   2.976575
     7  C    4.269301   6.274330   5.013022   2.303444   4.417002
     8  C    4.265303   6.268416   4.430224   2.303162   4.993599
     9  C    3.028094   2.987824   4.965683   4.195147   1.368371
    10  C    4.261868   4.430182   6.265136   4.992392   2.302730
    11  C    4.267556   5.013752   6.272363   4.417458   2.303112
    12  C    3.040756   4.222201   4.980572   2.977011   1.368749
    13  C    3.052845   1.368038   2.978441   4.981180   4.221357
    14  C    4.280050   2.303585   4.419888   6.274434   5.015610
    15  C    4.272601   2.303626   4.995608   6.268125   4.433906
    16  C    3.037804   4.199218   1.368998   2.989516   4.967626
    17  C    4.273064   4.995292   2.303924   4.432335   6.266694
    18  C    4.279475   4.418108   2.303814   5.014288   6.272484
    19  C    3.052235   2.976936   1.368662   4.220582   4.979539
    20  C    3.433539   2.448809   2.450053   5.059426   5.059040
    21  H    5.239284   6.069724   3.333462   5.113739   7.201086
    22  H    5.249594   5.102230   3.333256   6.089785   7.211036
    23  H    4.516802   3.389967   3.390913   6.106655   6.106573
    24  H    5.250486   3.333013   5.104737   7.213130   6.091021
    25  H    5.228729   5.110522   7.199178   6.066688   3.332252
    26  H    5.237784   6.089218   7.211547   5.103138   3.332666
    27  C    3.036142   1.368276   4.197869   4.968256   2.990888
    28  C    3.405084   2.450934   5.034902   5.034717   2.452947
    29  C    3.033409   4.970552   2.988795   1.370012   4.198041
    30  C    3.421774   5.061022   5.059913   2.450667   2.449063
    31  C    3.409644   5.038731   2.452108   2.453475   5.036782
    32  H    4.505041   6.108197   6.107184   3.391958   3.390450
    33  H    5.239299   7.213381   6.088493   3.333159   5.102560
    34  H    5.232945   7.203277   5.111917   3.332866   6.068176
    35  H    4.492174   6.084549   3.391695   3.392557   6.082398
    36  H    4.487676   3.390628   6.080995   6.080002   3.391521
    37  H    5.238620   3.333181   6.069975   7.202424   5.115334
    38  N    2.091470   2.867946   2.870011   2.871960   2.866946
    39  C    3.055292   4.019814   3.177487   3.175146   4.014691
    40  N    4.225709   4.845124   4.414104   4.421493   4.848770
    41  C    4.279472   4.468252   4.880236   4.895202   4.482086
    42  C    3.126100   3.220912   4.076279   4.090200   3.236283
    43  H    3.275168   4.530242   2.941679   2.927184   4.517464
    44  H    5.128235   5.799445   5.104448   5.110699   5.801767
    45  H    5.298307   5.297378   5.914175   5.932736   5.315881
    46  H    3.295195   2.937489   4.535679   4.552416   2.962064
    47  O    1.816815   2.674305   2.685245   2.818975   2.808673
    48  O    2.774267   3.906486   3.959594   2.967129   2.895867
    49  N    4.015572   5.345620   4.844062   3.542163   4.201667
    50  O    4.331513   5.711242   4.655914   3.715496   4.973820
                    6          7          8          9         10
     6  C    0.000000
     7  C    1.441574   0.000000
     8  C    2.249424   1.359196   0.000000
     9  C    4.293650   5.725375   6.354706   0.000000
    10  C    4.696387   6.035134   6.912116   1.443319   0.000000
    11  C    3.793065   5.003415   6.036381   2.250100   1.358290
    12  C    2.460137   3.793258   4.697757   2.192336   2.248478
    13  C    6.091599   7.280046   7.068815   4.305475   5.739034
    14  C    7.282348   8.548473   8.435377   4.707351   6.045081
    15  C    7.071056   8.435656   8.537465   3.800750   5.008072
    16  C    4.308953   4.707699   3.799342   6.064976   7.261595
    17  C    5.743073   6.046522   5.007988   7.260730   8.534142
    18  C    6.380375   6.930070   6.045119   7.060574   8.431822
    19  C    5.571670   6.377664   5.739440   5.670539   7.065941
    20  C    6.331302   7.329074   6.864047   5.421220   6.862779
    21  H    6.343231   6.422751   5.241626   8.253897   9.487825
    22  H    7.456908   8.003661   7.090661   7.900823   9.303960
    23  H    7.396708   8.355257   7.818768   6.376808   7.818135
    24  H    8.279493   9.506339   9.307723   5.774244   7.090615
    25  H    5.762898   7.080327   7.984297   2.241931   1.080189
    26  H    4.237494   5.241801   6.418039   3.309407   2.199050
    27  C    5.675255   7.064228   7.264016   2.467271   3.799293
    28  C    5.412481   6.849949   7.304367   1.388478   2.504560
    29  C    2.194731   2.250567   1.442489   5.542173   6.355930
    30  C    1.387040   2.504300   3.583524   3.537689   3.581677
    31  C    3.543165   3.585761   2.505380   6.298521   7.304644
    32  H    2.117300   2.714143   4.003348   4.295346   4.001625
    33  H    2.240445   1.080117   2.199716   6.331057   6.416901
    34  H    3.308582   2.199702   1.080175   7.429339   7.984195
    35  H    4.297022   4.001727   2.711604   7.361913   8.328576
    36  H    6.364716   7.802259   8.328052   2.116642   2.709272
    37  H    7.906925   9.303901   9.491353   4.242431   5.241688
    38  N    3.632821   4.725346   4.765336   3.712455   4.774225
    39  C    3.914235   4.667066   4.503897   4.973146   5.932603
    40  N    4.951236   5.657816   5.607957   5.604886   6.435311
    41  C    5.332422   6.282000   6.443798   4.927072   5.693780
    42  C    4.604317   5.762029   5.984156   3.640014   4.561025
    43  H    3.769379   4.246145   3.812586   5.631316   6.598857
    44  H    5.587356   6.096160   5.962879   6.590619   7.368755
    45  H    6.274941   7.201136   7.423611   5.584334   6.214569
    46  H    4.988348   6.278432   6.622114   2.959146   3.866796
    47  O    3.709098   4.776228   4.708463   3.541749   4.676404
    48  O    3.328266   4.294654   4.509891   3.639905   4.371380
    49  N    3.660162   4.155618   4.298600   5.022462   5.533908
    50  O    4.063886   4.299407   4.082620   5.901110   6.555935
                   11         12         13         14         15
    11  C    0.000000
    12  C    1.442189   0.000000
    13  C    6.377843   5.571290   0.000000
    14  C    6.930224   6.380154   1.443182   0.000000
    15  C    6.046532   5.742836   2.249041   1.358121   0.000000
    16  C    7.063253   5.674089   4.295846   5.728044   6.356859
    17  C    8.433996   7.069269   4.698185   6.036408   6.912505
    18  C    8.546529   7.280118   3.793725   5.003240   6.034997
    19  C    7.278511   6.089574   2.460808   3.794238   4.697315
    20  C    7.328650   6.330176   1.387013   2.504550   3.582237
    21  H    9.302220   7.905308   5.764582   7.081125   7.984220
    22  H    9.504268   8.277170   4.236923   5.239537   6.414480
    23  H    8.355210   7.395775   2.117467   2.713595   4.001412
    24  H    8.003716   7.456596   2.242126   1.080139   2.199105
    25  H    2.199193   3.307926   6.338075   6.419614   5.239949
    26  H    1.080068   2.241238   7.454292   8.003437   7.091535
    27  C    4.707765   4.308565   2.191521   2.249844   1.443825
    28  C    3.584406   3.541021   3.539205   3.584449   2.505946
    29  C    5.727792   4.296132   5.674980   7.065651   7.265493
    30  C    2.503661   1.386609   6.330997   7.331478   6.866968
    31  C    6.851569   5.414027   5.413943   6.852442   7.306775
    32  H    2.713482   2.117299   7.396278   8.357688   7.821990
    33  H    5.241812   4.237806   8.277424   9.506804   9.308766
    34  H    7.081288   5.764154   7.905261   9.303966   9.491599
    35  H    7.804385   6.366898   6.367165   7.805441   8.330799
    36  H    3.998783   4.294033   4.294098   4.000928   2.712363
    37  H    6.422422   6.342856   3.308555   2.199045   1.080187
    38  N    4.732597   3.633564   3.637237   4.738623   4.779695
    39  C    5.708091   4.538115   4.549082   5.721259   5.942792
    40  N    6.263508   5.292654   5.290022   6.263308   6.435891
    41  C    5.734283   5.014478   4.995505   5.716540   5.681398
    42  C    4.727093   3.977920   3.957996   4.709202   4.548414
    43  H    6.247855   4.950086   4.973536   6.272942   6.617180
    44  H    7.123106   6.150719   6.150364   7.125189   7.370852
    45  H    6.318940   5.783215   5.756006   6.290918   6.194249
    46  H    4.301893   3.816726   3.784363   4.269311   3.841317
    47  O    4.753957   3.697393   3.492285   4.557781   4.534977
    48  O    4.190327   3.266535   4.898674   5.843029   5.577656
    49  N    5.105504   4.214557   6.240565   7.239854   7.048925
    50  O    6.126686   5.091608   6.416909   7.517174   7.530922
                   16         17         18         19         20
    16  C    0.000000
    17  C    1.443431   0.000000
    18  C    2.249870   1.358364   0.000000
    19  C    2.192211   2.249207   1.442846   0.000000
    20  C    3.538546   3.582581   2.503955   1.387163   0.000000
    21  H    2.242203   1.080210   2.199371   3.308705   4.605321
    22  H    3.309321   2.199278   1.080145   2.241709   2.854738
    23  H    4.295088   4.001066   2.712475   2.117426   1.083363
    24  H    6.332561   6.416860   5.240579   4.238332   2.855993
    25  H    8.254493   9.487307   9.299238   7.901284   7.558391
    26  H    7.904564   9.307278   9.505105   8.276089   8.383244
    27  C    5.542987   6.355337   5.725283   4.293549   3.537171
    28  C    6.297982   7.302840   6.847954   5.410131   4.834540
    29  C    2.467098   3.799946   4.707318   4.306648   5.423735
    30  C    5.424940   6.866706   7.330894   6.330413   6.848166
    31  C    1.388015   2.504752   3.583988   3.540035   4.836477
    32  H    6.380264   7.821922   8.357308   7.395809   7.930921
    33  H    5.774302   7.091703   8.003403   7.454116   8.383561
    34  H    4.240741   5.241545   6.421249   6.339845   7.560866
    35  H    2.117029   2.711047   4.000149   4.294576   5.654205
    36  H    7.361595   8.327048   7.801240   6.363739   5.652795
    37  H    7.431217   7.984287   7.079759   5.763745   4.605080
    38  N    3.715322   4.781382   4.742439   3.640713   3.936872
    39  C    3.595513   4.533497   4.699253   3.932793   4.501996
    40  N    4.854482   5.628696   5.677757   4.955963   5.321253
    41  C    5.625265   6.450744   6.284271   5.321900   5.353316
    42  C    5.031691   5.987291   5.760766   4.592589   4.531180
    43  H    2.941364   3.860438   4.298233   3.805018   4.673672
    44  H    5.346804   5.988254   6.121135   5.595089   6.044228
    45  H    6.667207   7.425968   7.196532   6.257764   6.169100
    46  H    5.648876   6.617092   6.266605   4.967978   4.656524
    47  O    3.474246   4.553270   4.567053   3.496975   3.832389
    48  O    4.477628   5.671285   5.903949   4.933177   5.329817
    49  N    4.974648   6.107990   6.587413   5.872850   6.476835
    50  O    4.511674   5.491380   6.100826   5.627835   6.402912
                   21         22         23         24         25
    21  H    0.000000
    22  H    2.701960   0.000000
    23  H    4.911348   2.629212   0.000000
    24  H    7.408897   5.254899   2.631225   0.000000
    25  H   10.464505  10.123001   8.451212   7.412065   0.000000
    26  H   10.127411  10.486477   9.418056   9.074833   2.701528
    27  C    7.429658   6.329094   4.294395   3.309360   4.239243
    28  C    8.353915   7.548594   5.655088   4.607430   2.854112
    29  C    4.241002   5.774139   6.378565   7.906061   7.430356
    30  C    7.563339   8.385304   7.931108   8.385858   4.604511
    31  C    2.855072   4.606754   5.656043   7.553431   8.355754
    32  H    8.456160   9.420042   9.013710   9.420354   4.912144
    33  H    7.414748   9.074923   9.418016  10.488259   7.409616
    34  H    5.253098   7.413719   8.453011  10.128111   9.053869
    35  H    2.627175   4.910260   6.369747   8.443956   9.387611
    36  H    9.385899   8.439382   6.369517   4.911437   2.624336
    37  H    9.053371   7.406522   4.911912   2.701662   5.251397
    38  N    5.690371   5.625913   4.896143   5.620480   5.682430
    39  C    5.282481   5.564245   5.357806   6.489464   6.862853
    40  N    6.325620   6.413624   6.053802   6.959036   7.262305
    41  C    7.273408   6.978751   6.079263   6.441747   6.387929
    42  C    6.916499   6.523502   5.377586   5.564035   5.299700
    43  H    4.474170   5.209026   5.506994   7.002154   7.588122
    44  H    6.554495   6.795847   6.694809   7.751908   8.191394
    45  H    8.229867   7.815291   6.802644   6.941679   6.782372
    46  H    7.606680   6.992074   5.484379   5.172856   4.475479
    47  O    5.443463   5.465563   4.807402   5.459986   5.547512
    48  O    6.435596   6.838275   6.304845   6.785768   5.239171
    49  N    6.671560   7.523359   7.407853   8.131670   6.382177
    50  O    5.915951   7.002509   7.265206   8.327304   7.441865
                   26         27         28         29         30
    26  H    0.000000
    27  C    5.774273   0.000000
    28  C    4.606838   1.388112   0.000000
    29  C    6.333233   6.068800   6.299568   0.000000
    30  C    2.855317   5.424913   4.836451   3.540548   0.000000
    31  C    7.553642   6.300745   6.811370   1.388695   4.838765
    32  H    2.631323   6.380165   5.656926   4.297761   1.083318
    33  H    5.258396   7.905477   7.552097   3.309717   2.855798
    34  H    7.410271   8.257646   8.355901   2.241192   4.606003
    35  H    8.444031   7.364219   7.892022   2.116898   5.656082
    36  H    4.908270   2.116983   1.083450   7.362788   5.652848
    37  H    7.414149   2.242749   2.856968   8.258800   7.563321
    38  N    5.613933   3.715271   4.055794   3.709403   3.929140
    39  C    6.474488   4.978607   5.372709   3.582663   4.484021
    40  N    6.959147   5.604190   5.934382   4.848417   5.318487
    41  C    6.461843   4.918480   5.128187   5.626541   5.368697
    42  C    5.583431   3.630718   3.819264   5.034142   4.547504
    43  H    6.973254   5.641783   6.093456   2.916299   4.639731
    44  H    7.749301   6.590782   6.938328   5.338879   6.038369
    45  H    6.974134   5.571375   5.710438   6.671205   6.193289
    46  H    5.207376   2.940722   2.958645   5.655288   4.684412
    47  O    5.675806   3.451549   3.793692   3.572440   4.067253
    48  O    4.934157   4.378939   4.267081   3.768218   3.475768
    49  N    5.624895   5.885289   5.748474   3.928599   3.998374
    50  O    6.672653   6.450799   6.527391   3.697269   4.725513
                   31         32         33         34         35
    31  C    0.000000
    32  H    5.659131   0.000000
    33  H    4.608161   2.631889   0.000000
    34  H    2.855768   4.913320   2.701600   0.000000
    35  H    1.083357   6.372576   4.911296   2.627940   0.000000
    36  H    7.892056   6.369250   8.441862   9.387519   8.971840
    37  H    8.358050   8.455888  10.128908  10.469037   9.389952
    38  N    4.051148   4.885805   5.606169   5.672878   5.029845
    39  C    3.772874   5.335365   5.526948   5.250653   4.575387
    40  N    5.048493   6.047211   6.388345   6.299931   5.760141
    41  C    5.946391   6.093515   6.974359   7.261489   6.785425
    42  C    5.425740   5.392815   6.523979   6.909807   6.389504
    43  H    2.932350   5.467031   5.150896   4.425360   3.610716
    44  H    5.456785   6.684252   6.763765   6.522816   6.018974
    45  H    6.997709   6.827580   7.818970   8.221741   7.807777
    46  H    6.106393   5.512962   7.005464   7.608356   7.126125
    47  O    3.827897   5.056825   5.696600   5.583710   4.790081
    48  O    4.401294   4.276411   5.029397   5.391343   5.262301
    49  N    4.583500   4.554110   4.734928   4.982802   5.204148
    50  O    4.074978   5.315356   4.952674   4.574209   4.520025
                   36         37         38         39         40
    36  H    0.000000
    37  H    2.629483   0.000000
    38  N    5.035192   5.688089   0.000000
    39  C    6.341294   6.872802   1.318126   0.000000
    40  N    6.782535   7.263617   2.191743   1.353827   0.000000
    41  C    5.840773   6.377296   2.238360   2.213098   1.380898
    42  C    4.611811   5.289353   1.378066   2.165561   2.186018
    43  H    7.115020   7.605423   2.134374   1.076657   2.150097
    44  H    7.773412   8.194085   3.156796   2.105756   1.007185
    45  H    6.278807   6.763825   3.297077   3.236200   2.158887
    46  H    3.633393   4.453648   2.146105   3.184321   3.242082
    47  O    4.753859   5.423520   3.905261   4.799139   6.022154
    48  O    5.113980   6.327587   4.749715   5.615226   6.823361
    49  N    6.551916   7.792642   5.903014   6.568817   7.829414
    50  O    7.393936   8.353809   6.193354   6.693170   8.014342
                   41         42         43         44         45
    41  C    0.000000
    42  C    1.365025   0.000000
    43  H    3.247547   3.211688   0.000000
    44  H    2.137963   3.164205   2.543299   0.000000
    45  H    1.075982   2.233022   4.225640   2.557959   0.000000
    46  H    2.207564   1.075715   4.189341   4.197703   2.763843
    47  O    6.074722   4.862921   4.818431   6.896827   7.072461
    48  O    6.865650   5.658576   5.598564   7.682615   7.842657
    49  N    8.042928   6.927900   6.350948   8.601050   9.046282
    50  O    8.393947   7.354471   6.305410   8.714567   9.438662
                   46         47         48         49         50
    46  H    0.000000
    47  O    4.827283   0.000000
    48  O    5.570224   1.500002   0.000000
    49  N    6.946226   2.749998   1.512559   0.000000
    50  O    7.498646   3.052166   2.301345   1.174520   0.000000
 Stoichiometry    C23H16FeN7O3(2)
 Framework group  C1[X(C23H16FeN7O3)]
 Deg. of freedom   144
 Full point group                 C1      NOp   1
 Largest Abelian subgroup         C1      NOp   1
 Largest concise Abelian subgroup C1      NOp   1
                         Standard orientation:                         
 ---------------------------------------------------------------------
 Center     Atomic      Atomic             Coordinates (Angstroms)
 Number     Number       Type             X           Y           Z
 ---------------------------------------------------------------------
      1         26           0       -0.103996    0.011523   -0.174491
      2          7           0       -2.058636   -0.051644   -0.689481
      3          7           0       -0.170869    2.030381   -0.265268
      4          7           0        1.813384    0.090199    0.432359
      5          7           0       -0.072076   -1.990702    0.011045
      6          6           0        2.608626   -0.964189    0.798511
      7          6           0        3.932691   -0.493706    1.120435
      8          6           0        3.928844    0.852227    0.931057
      9          6           0       -1.075716   -2.851577   -0.341149
     10          6           0       -0.650199   -4.214999   -0.133337
     11          6           0        0.618158   -4.161688    0.349758
     12          6           0        0.976627   -2.766789    0.425034
     13          6           0       -2.884797    1.008502   -0.944582
     14          6           0       -4.184389    0.534515   -1.355888
     15          6           0       -4.121720   -0.822127   -1.365303
     16          6           0        0.890508    2.881233   -0.111367
     17          6           0        0.466251    4.243521   -0.329704
     18          6           0       -0.861397    4.200479   -0.613696
     19          6           0       -1.249560    2.811200   -0.581467
     20          6           0       -2.523552    2.345682   -0.872085
     21          1           0        1.113815    5.106332   -0.274284
     22          1           0       -1.526578    5.020496   -0.841335
     23          1           0       -3.282423    3.081834   -1.108456
     24          1           0       -5.018359    1.170355   -1.614541
     25          1           0       -1.255107   -5.086316   -0.337547
     26          1           0        1.268837   -4.980334    0.619911
     27          6           0       -2.787400   -1.180853   -0.946331
     28          6           0       -2.334681   -2.484590   -0.797435
     29          6           0        2.598468    1.210666    0.503980
     30          6           0        2.219400   -2.295326    0.819902
     31          6           0        2.180206    2.508562    0.241310
     32          1           0        2.958465   -3.026974    1.123303
     33          1           0        4.751210   -1.125190    1.433340
     34          1           0        4.743481    1.550156    1.057700
     35          1           0        2.919729    3.295569    0.327266
     36          1           0       -3.026166   -3.282174   -1.041508
     37          1           0       -4.894997   -1.528446   -1.629804
     38          7           0       -0.696610    0.137821    1.827284
     39          6           0       -0.199857    0.962780    2.727358
     40          7           0       -0.816316    0.781442    3.918972
     41          6           0       -1.758490   -0.216393    3.765634
     42          6           0       -1.670412   -0.604241    2.459835
     43          1           0        0.582018    1.683122    2.557151
     44          1           0       -0.616753    1.289520    4.765408
     45          1           0       -2.385805   -0.548177    4.574417
     46          1           0       -2.232331   -1.357331    1.936133
     47          8           0        0.302169   -0.010366   -1.945188
     48          8           0        1.375457   -0.998956   -2.292676
     49          7           0        2.767926   -0.819202   -2.855308
     50          8           0        3.138821    0.280891   -3.033439
 ---------------------------------------------------------------------
 Rotational constants (GHZ):      0.1611493      0.1514636      0.1254124
 Basis read from chk: NOD_iso_150_275_s2.chk (5D, 7F)
 Pseudo-potential data read from chk file.
 There are   712 symmetry adapted basis functions of A   symmetry.
 Integral buffers will be    131072 words long.
 Raffenetti 2 integral format.
 Two-electron integral symmetry is turned on.
   712 basis functions,  1236 primitive gaussians,   747 cartesian basis functions
   122 alpha electrons      121 beta electrons
       nuclear repulsion energy      4028.2055304034 Hartrees.
 NAtoms=   50 NActive=   50 NUniq=   50 SFac= 1.00D+00 NAtFMM=   50 NAOKFM=T Big=T
 One-electron integrals computed using PRISM.
   1 Symmetry operations used in ECPInt.
 ECPInt:  NShTT=   28203 NPrTT=  130452 LenC2=   23291 LenP2D=   61322.
 LDataN:  DoStor=T MaxTD1= 4 Len=   56
 NBasis=   712 RedAO= T  NBF=   712
 NBsUse=   712 1.00D-06 NBFU=   712
 Initial guess read from the checkpoint file:  NOD_iso_150_275_s2.chk
 B after Tr=     0.000000    0.000000    0.000000
         Rot=    0.995398    0.026685    0.019795   -0.089877 Ang=  11.00 deg.
 Initial guess orbital symmetries:
 Alpha Orbitals:
       Occupied  (A) (A) (A) (A) (A) (A) (A) (A) (A) (A) (A) (A)
                 (A) (A) (A) (A) (A) (A) (A) (A) (A) (A) (A) (A)
                 (A) (A) (A) (A) (A) (A) (A) (A) (A) (A) (A) (A)
                 (A) (A) (A) (A) (A) (A) (A) (A) (A) (A) (A) (A)
                 (A) (A) (A) (A) (A) (A) (A) (A) (A) (A) (A) (A)
                 (A) (A) (A) (A) (A) (A) (A) (A) (A) (A) (A) (A)
                 (A) (A) (A) (A) (A) (A) (A) (A) (A) (A) (A) (A)
                 (A) (A) (A) (A) (A) (A) (A) (A) (A) (A) (A) (A)
                 (A) (A) (A) (A) (A) (A) (A) (A) (A) (A) (A) (A)
                 (A) (A) (A) (A) (A) (A) (A) (A) (A) (A) (A) (A)
                 (A) (A)
       Virtual   (A) (A) (A) (A) (A) (A) (A) (A) (A) (A) (A) (A)
                 (A) (A) (A) (A) (A) (A) (A) (A) (A) (A) (A) (A)
                 (A) (A) (A) (A) (A) (A) (A) (A) (A) (A) (A) (A)
                 (A) (A) (A) (A) (A) (A) (A) (A) (A) (A) (A) (A)
                 (A) (A) (A) (A) (A) (A) (A) (A) (A) (A) (A) (A)
                 (A) (A) (A) (A) (A) (A) (A) (A) (A) (A) (A) (A)
                 (A) (A) (A) (A) (A) (A) (A) (A) (A) (A) (A) (A)
                 (A) (A) (A) (A) (A) (A) (A) (A) (A) (A) (A) (A)
                 (A) (A) (A) (A) (A) (A) (A) (A) (A) (A) (A) (A)
                 (A) (A) (A) (A) (A) (A) (A) (A) (A) (A) (A) (A)
                 (A) (A) (A) (A) (A) (A) (A) (A) (A) (A) (A) (A)
                 (A) (A) (A) (A) (A) (A) (A) (A) (A) (A) (A) (A)
                 (A) (A) (A) (A) (A) (A) (A) (A) (A) (A) (A) (A)
                 (A) (A) (A) (A) (A) (A) (A) (A) (A) (A) (A) (A)
                 (A) (A) (A) (A) (A) (A) (A) (A) (A) (A) (A) (A)
                 (A) (A) (A) (A) (A) (A) (A) (A) (A) (A) (A) (A)
                 (A) (A) (A) (A) (A) (A) (A) (A) (A) (A) (A) (A)
                 (A) (A) (A) (A) (A) (A) (A) (A) (A) (A) (A) (A)
                 (A) (A) (A) (A) (A) (A) (A) (A) (A) (A) (A) (A)
                 (A) (A) (A) (A) (A) (A) (A) (A) (A) (A) (A) (A)
                 (A) (A) (A) (A) (A) (A) (A) (A) (A) (A) (A) (A)
                 (A) (A) (A) (A) (A) (A) (A) (A) (A) (A) (A) (A)
                 (A) (A) (A) (A) (A) (A) (A) (A) (A) (A) (A) (A)
                 (A) (A) (A) (A) (A) (A) (A) (A) (A) (A) (A) (A)
                 (A) (A) (A) (A) (A) (A) (A) (A) (A) (A) (A) (A)
                 (A) (A) (A) (A) (A) (A) (A) (A) (A) (A) (A) (A)
                 (A) (A) (A) (A) (A) (A) (A) (A) (A) (A) (A) (A)
                 (A) (A) (A) (A) (A) (A) (A) (A) (A) (A) (A) (A)
                 (A) (A) (A) (A) (A) (A) (A) (A) (A) (A) (A) (A)
                 (A) (A) (A) (A) (A) (A) (A) (A) (A) (A) (A) (A)
                 (A) (A) (A) (A) (A) (A) (A) (A) (A) (A) (A) (A)
                 (A) (A) (A) (A) (A) (A) (A) (A) (A) (A) (A) (A)
                 (A) (A) (A) (A) (A) (A) (A) (A) (A) (A) (A) (A)
                 (A) (A) (A) (A) (A) (A) (A) (A) (A) (A) (A) (A)
                 (A) (A) (A) (A) (A) (A) (A) (A) (A) (A) (A) (A)
                 (A) (A) (A) (A) (A) (A) (A) (A) (A) (A) (A) (A)
                 (A) (A) (A) (A) (A) (A) (A) (A) (A) (A) (A) (A)
                 (A) (A) (A) (A) (A) (A) (A) (A) (A) (A) (A) (A)
                 (A) (A) (A) (A) (A) (A) (A) (A) (A) (A) (A) (A)
                 (A) (A) (A) (A) (A) (A) (A) (A) (A) (A) (A) (A)
                 (A) (A) (A) (A) (A) (A) (A) (A) (A) (A) (A) (A)
                 (A) (A) (A) (A) (A) (A) (A) (A) (A) (A) (A) (A)
                 (A) (A) (A) (A) (A) (A) (A) (A) (A) (A) (A) (A)
                 (A) (A) (A) (A) (A) (A) (A) (A) (A) (A) (A) (A)
                 (A) (A) (A) (A) (A) (A) (A) (A) (A) (A) (A) (A)
                 (A) (A) (A) (A) (A) (A) (A) (A) (A) (A) (A) (A)
                 (A) (A) (A) (A) (A) (A) (A) (A) (A) (A) (A) (A)
                 (A) (A) (A) (A) (A) (A) (A) (A) (A) (A) (A) (A)
                 (A) (A) (A) (A) (A) (A) (A) (A) (A) (A) (A) (A)
                 (A) (A)
 Beta  Orbitals:
       Occupied  (A) (A) (A) (A) (A) (A) (A) (A) (A) (A) (A) (A)
                 (A) (A) (A) (A) (A) (A) (A) (A) (A) (A) (A) (A)
                 (A) (A) (A) (A) (A) (A) (A) (A) (A) (A) (A) (A)
                 (A) (A) (A) (A) (A) (A) (A) (A) (A) (A) (A) (A)
                 (A) (A) (A) (A) (A) (A) (A) (A) (A) (A) (A) (A)
                 (A) (A) (A) (A) (A) (A) (A) (A) (A) (A) (A) (A)
                 (A) (A) (A) (A) (A) (A) (A) (A) (A) (A) (A) (A)
                 (A) (A) (A) (A) (A) (A) (A) (A) (A) (A) (A) (A)
                 (A) (A) (A) (A) (A) (A) (A) (A) (A) (A) (A) (A)
                 (A) (A) (A) (A) (A) (A) (A) (A) (A) (A) (A) (A)
                 (A)
       Virtual   (A) (A) (A) (A) (A) (A) (A) (A) (A) (A) (A) (A)
                 (A) (A) (A) (A) (A) (A) (A) (A) (A) (A) (A) (A)
                 (A) (A) (A) (A) (A) (A) (A) (A) (A) (A) (A) (A)
                 (A) (A) (A) (A) (A) (A) (A) (A) (A) (A) (A) (A)
                 (A) (A) (A) (A) (A) (A) (A) (A) (A) (A) (A) (A)
                 (A) (A) (A) (A) (A) (A) (A) (A) (A) (A) (A) (A)
                 (A) (A) (A) (A) (A) (A) (A) (A) (A) (A) (A) (A)
                 (A) (A) (A) (A) (A) (A) (A) (A) (A) (A) (A) (A)
                 (A) (A) (A) (A) (A) (A) (A) (A) (A) (A) (A) (A)
                 (A) (A) (A) (A) (A) (A) (A) (A) (A) (A) (A) (A)
                 (A) (A) (A) (A) (A) (A) (A) (A) (A) (A) (A) (A)
                 (A) (A) (A) (A) (A) (A) (A) (A) (A) (A) (A) (A)
                 (A) (A) (A) (A) (A) (A) (A) (A) (A) (A) (A) (A)
                 (A) (A) (A) (A) (A) (A) (A) (A) (A) (A) (A) (A)
                 (A) (A) (A) (A) (A) (A) (A) (A) (A) (A) (A) (A)
                 (A) (A) (A) (A) (A) (A) (A) (A) (A) (A) (A) (A)
                 (A) (A) (A) (A) (A) (A) (A) (A) (A) (A) (A) (A)
                 (A) (A) (A) (A) (A) (A) (A) (A) (A) (A) (A) (A)
                 (A) (A) (A) (A) (A) (A) (A) (A) (A) (A) (A) (A)
                 (A) (A) (A) (A) (A) (A) (A) (A) (A) (A) (A) (A)
                 (A) (A) (A) (A) (A) (A) (A) (A) (A) (A) (A) (A)
                 (A) (A) (A) (A) (A) (A) (A) (A) (A) (A) (A) (A)
                 (A) (A) (A) (A) (A) (A) (A) (A) (A) (A) (A) (A)
                 (A) (A) (A) (A) (A) (A) (A) (A) (A) (A) (A) (A)
                 (A) (A) (A) (A) (A) (A) (A) (A) (A) (A) (A) (A)
                 (A) (A) (A) (A) (A) (A) (A) (A) (A) (A) (A) (A)
                 (A) (A) (A) (A) (A) (A) (A) (A) (A) (A) (A) (A)
                 (A) (A) (A) (A) (A) (A) (A) (A) (A) (A) (A) (A)
                 (A) (A) (A) (A) (A) (A) (A) (A) (A) (A) (A) (A)
                 (A) (A) (A) (A) (A) (A) (A) (A) (A) (A) (A) (A)
                 (A) (A) (A) (A) (A) (A) (A) (A) (A) (A) (A) (A)
                 (A) (A) (A) (A) (A) (A) (A) (A) (A) (A) (A) (A)
                 (A) (A) (A) (A) (A) (A) (A) (A) (A) (A) (A) (A)
                 (A) (A) (A) (A) (A) (A) (A) (A) (A) (A) (A) (A)
                 (A) (A) (A) (A) (A) (A) (A) (A) (A) (A) (A) (A)
                 (A) (A) (A) (A) (A) (A) (A) (A) (A) (A) (A) (A)
                 (A) (A) (A) (A) (A) (A) (A) (A) (A) (A) (A) (A)
                 (A) (A) (A) (A) (A) (A) (A) (A) (A) (A) (A) (A)
                 (A) (A) (A) (A) (A) (A) (A) (A) (A) (A) (A) (A)
                 (A) (A) (A) (A) (A) (A) (A) (A) (A) (A) (A) (A)
                 (A) (A) (A) (A) (A) (A) (A) (A) (A) (A) (A) (A)
                 (A) (A) (A) (A) (A) (A) (A) (A) (A) (A) (A) (A)
                 (A) (A) (A) (A) (A) (A) (A) (A) (A) (A) (A) (A)
                 (A) (A) (A) (A) (A) (A) (A) (A) (A) (A) (A) (A)
                 (A) (A) (A) (A) (A) (A) (A) (A) (A) (A) (A) (A)
                 (A) (A) (A) (A) (A) (A) (A) (A) (A) (A) (A) (A)
                 (A) (A) (A) (A) (A) (A) (A) (A) (A) (A) (A) (A)
                 (A) (A) (A) (A) (A) (A) (A) (A) (A) (A) (A) (A)
                 (A) (A) (A) (A) (A) (A) (A) (A) (A) (A) (A) (A)
                 (A) (A) (A)
 Initial guess <Sx>= 0.0000 <Sy>= 0.0000 <Sz>= 0.5000 <S**2>= 0.7791 S= 0.5145
 Gradient too large for Newton-Raphson -- use scaled steepest descent instead.
 Gradient too large for Newton-Raphson -- use scaled steepest descent instead.
 Gradient too large for Newton-Raphson -- use scaled steepest descent instead.
 Gradient too large for Newton-Raphson -- use scaled steepest descent instead.
 LinEq1:  Iter=  0 NonCon=     1 RMS=3.39D-05 Max=2.57D-03
 AX will form     1 AO Fock derivatives at one time.
 LinEq1:  Iter=  1 NonCon=     1 RMS=7.52D-05 Max=7.36D-03
 LinEq1:  Iter=  2 NonCon=     1 RMS=2.99D-05 Max=3.80D-03
 LinEq1:  Iter=  3 NonCon=     1 RMS=3.66D-05 Max=3.42D-03
 LinEq1:  Iter=  4 NonCon=     1 RMS=5.27D-05 Max=5.05D-03
 LinEq1:  Iter=  5 NonCon=     1 RMS=5.71D-05 Max=7.75D-03
 LinEq1:  Iter=  6 NonCon=     1 RMS=7.28D-05 Max=5.60D-03
 LinEq1:  Iter=  7 NonCon=     1 RMS=5.89D-05 Max=3.65D-03
 LinEq1:  Iter=  8 NonCon=     1 RMS=5.85D-05 Max=4.40D-03
 LinEq1:  Iter=  9 NonCon=     1 RMS=4.57D-05 Max=4.02D-03
 LinEq1:  Iter= 10 NonCon=     1 RMS=4.60D-05 Max=3.86D-03
 LinEq1:  Iter= 11 NonCon=     1 RMS=4.03D-05 Max=3.09D-03
 LinEq1:  Iter= 12 NonCon=     1 RMS=4.91D-05 Max=3.60D-03
 LinEq1:  Iter= 13 NonCon=     1 RMS=4.56D-05 Max=3.56D-03
 LinEq1:  Iter= 14 NonCon=     1 RMS=4.69D-05 Max=3.05D-03
 LinEq1:  Iter= 15 NonCon=     1 RMS=4.33D-05 Max=4.05D-03
 LinEq1:  Iter= 16 NonCon=     1 RMS=4.36D-05 Max=2.71D-03
 LinEq1:  Iter= 17 NonCon=     1 RMS=3.27D-05 Max=2.00D-03
 LinEq1:  Iter= 18 NonCon=     1 RMS=2.99D-05 Max=2.44D-03
 LinEq1:  Iter= 19 NonCon=     1 RMS=3.03D-05 Max=1.83D-03
 LinEq1:  Iter= 20 NonCon=     1 RMS=2.13D-05 Max=1.37D-03
 LinEq1:  Iter= 21 NonCon=     1 RMS=1.65D-05 Max=1.07D-03
 LinEq1:  Iter= 22 NonCon=     1 RMS=1.55D-05 Max=1.24D-03
 LinEq1:  Iter= 23 NonCon=     1 RMS=1.19D-05 Max=8.11D-04
 LinEq1:  Iter= 24 NonCon=     1 RMS=1.18D-05 Max=6.46D-04
 LinEq1:  Iter= 25 NonCon=     1 RMS=9.75D-06 Max=5.85D-04
 LinEq1:  Iter= 26 NonCon=     1 RMS=7.73D-06 Max=4.93D-04
 LinEq1:  Iter= 27 NonCon=     1 RMS=5.66D-06 Max=5.05D-04
 LinEq1:  Iter= 28 NonCon=     1 RMS=4.97D-06 Max=3.32D-04
 LinEq1:  Iter= 29 NonCon=     1 RMS=4.12D-06 Max=2.01D-04
 LinEq1:  Iter= 30 NonCon=     1 RMS=2.39D-06 Max=9.73D-05
 LinEq1:  Iter= 31 NonCon=     1 RMS=1.65D-06 Max=9.28D-05
 LinEq1:  Iter= 32 NonCon=     1 RMS=1.35D-06 Max=9.36D-05
 LinEq1:  Iter= 33 NonCon=     1 RMS=1.10D-06 Max=6.66D-05
 LinEq1:  Iter= 34 NonCon=     1 RMS=8.06D-07 Max=4.44D-05
 LinEq1:  Iter= 35 NonCon=     1 RMS=6.49D-07 Max=5.01D-05
 LinEq1:  Iter= 36 NonCon=     1 RMS=5.53D-07 Max=4.27D-05
 LinEq1:  Iter= 37 NonCon=     1 RMS=4.50D-07 Max=3.14D-05
 LinEq1:  Iter= 38 NonCon=     1 RMS=2.85D-07 Max=2.00D-05
 LinEq1:  Iter= 39 NonCon=     1 RMS=1.81D-07 Max=1.15D-05
 LinEq1:  Iter= 40 NonCon=     1 RMS=1.09D-07 Max=4.97D-06
 LinEq1:  Iter= 41 NonCon=     1 RMS=8.37D-08 Max=4.49D-06
 LinEq1:  Iter= 42 NonCon=     1 RMS=5.70D-08 Max=3.45D-06
 LinEq1:  Iter= 43 NonCon=     1 RMS=4.24D-08 Max=2.61D-06
 LinEq1:  Iter= 44 NonCon=     1 RMS=3.53D-08 Max=1.98D-06
 LinEq1:  Iter= 45 NonCon=     1 RMS=2.45D-08 Max=1.39D-06
 LinEq1:  Iter= 46 NonCon=     1 RMS=1.72D-08 Max=9.26D-07
 LinEq1:  Iter= 47 NonCon=     1 RMS=1.42D-08 Max=1.02D-06
 LinEq1:  Iter= 48 NonCon=     1 RMS=1.06D-08 Max=6.19D-07
 LinEq1:  Iter= 49 NonCon=     1 RMS=7.39D-09 Max=5.27D-07
 LinEq1:  Iter= 50 NonCon=     0 RMS=4.30D-09 Max=3.10D-07
 Linear equations converged to 3.788D-08 3.788D-07 after    50 iterations.
 LinEq1:  Iter=  0 NonCon=     1 RMS=5.06D-07 Max=8.13D-05
 LinEq1:  Iter=  1 NonCon=     1 RMS=1.07D-06 Max=1.33D-04
 LinEq1:  Iter=  2 NonCon=     1 RMS=8.65D-07 Max=6.64D-05
 LinEq1:  Iter=  3 NonCon=     1 RMS=1.28D-06 Max=1.25D-04
 LinEq1:  Iter=  4 NonCon=     1 RMS=1.22D-06 Max=1.22D-04
 LinEq1:  Iter=  5 NonCon=     1 RMS=1.45D-06 Max=9.79D-05
 LinEq1:  Iter=  6 NonCon=     1 RMS=1.67D-06 Max=1.17D-04
 LinEq1:  Iter=  7 NonCon=     1 RMS=2.23D-06 Max=2.36D-04
 LinEq1:  Iter=  8 NonCon=     1 RMS=2.20D-06 Max=2.48D-04
 LinEq1:  Iter=  9 NonCon=     1 RMS=2.94D-06 Max=2.57D-04
 LinEq1:  Iter= 10 NonCon=     1 RMS=2.45D-06 Max=1.95D-04
 LinEq1:  Iter= 11 NonCon=     1 RMS=2.25D-06 Max=1.70D-04
 LinEq1:  Iter= 12 NonCon=     1 RMS=2.17D-06 Max=2.34D-04
 LinEq1:  Iter= 13 NonCon=     1 RMS=2.28D-06 Max=2.43D-04
 LinEq1:  Iter= 14 NonCon=     1 RMS=2.38D-06 Max=1.29D-04
 LinEq1:  Iter= 15 NonCon=     1 RMS=2.02D-06 Max=1.17D-04
 LinEq1:  Iter= 16 NonCon=     1 RMS=1.66D-06 Max=1.29D-04
 LinEq1:  Iter= 17 NonCon=     1 RMS=1.69D-06 Max=1.45D-04
 LinEq1:  Iter= 18 NonCon=     1 RMS=1.39D-06 Max=9.06D-05
 LinEq1:  Iter= 19 NonCon=     1 RMS=1.21D-06 Max=7.22D-05
 LinEq1:  Iter= 20 NonCon=     1 RMS=1.01D-06 Max=6.45D-05
 LinEq1:  Iter= 21 NonCon=     1 RMS=8.63D-07 Max=5.79D-05
 LinEq1:  Iter= 22 NonCon=     1 RMS=6.72D-07 Max=4.20D-05
 LinEq1:  Iter= 23 NonCon=     1 RMS=5.72D-07 Max=3.79D-05
 LinEq1:  Iter= 24 NonCon=     1 RMS=5.05D-07 Max=3.89D-05
 LinEq1:  Iter= 25 NonCon=     1 RMS=4.90D-07 Max=3.84D-05
 LinEq1:  Iter= 26 NonCon=     1 RMS=3.65D-07 Max=2.54D-05
 LinEq1:  Iter= 27 NonCon=     1 RMS=2.88D-07 Max=2.09D-05
 LinEq1:  Iter= 28 NonCon=     1 RMS=2.15D-07 Max=1.38D-05
 LinEq1:  Iter= 29 NonCon=     1 RMS=1.63D-07 Max=9.13D-06
 LinEq1:  Iter= 30 NonCon=     1 RMS=1.14D-07 Max=7.40D-06
 LinEq1:  Iter= 31 NonCon=     1 RMS=9.88D-08 Max=5.93D-06
 LinEq1:  Iter= 32 NonCon=     1 RMS=6.69D-08 Max=3.87D-06
 LinEq1:  Iter= 33 NonCon=     1 RMS=5.99D-08 Max=3.78D-06
 LinEq1:  Iter= 34 NonCon=     1 RMS=4.19D-08 Max=2.50D-06
 LinEq1:  Iter= 35 NonCon=     1 RMS=2.96D-08 Max=1.92D-06
 LinEq1:  Iter= 36 NonCon=     1 RMS=2.30D-08 Max=1.45D-06
 LinEq1:  Iter= 37 NonCon=     1 RMS=1.61D-08 Max=1.10D-06
 LinEq1:  Iter= 38 NonCon=     1 RMS=1.14D-08 Max=7.97D-07
 LinEq1:  Iter= 39 NonCon=     1 RMS=7.92D-09 Max=5.88D-07
 LinEq1:  Iter= 40 NonCon=     1 RMS=5.19D-09 Max=3.09D-07
 LinEq1:  Iter= 41 NonCon=     1 RMS=3.69D-09 Max=1.89D-07
 LinEq1:  Iter= 42 NonCon=     1 RMS=3.24D-09 Max=1.76D-07
 LinEq1:  Iter= 43 NonCon=     1 RMS=1.92D-09 Max=7.75D-08
 LinEq1:  Iter= 44 NonCon=     1 RMS=1.64D-09 Max=7.20D-08
 LinEq1:  Iter= 45 NonCon=     1 RMS=8.98D-10 Max=4.64D-08
 LinEq1:  Iter= 46 NonCon=     1 RMS=6.43D-10 Max=3.77D-08
 LinEq1:  Iter= 47 NonCon=     1 RMS=4.90D-10 Max=2.24D-08
 LinEq1:  Iter= 48 NonCon=     1 RMS=3.00D-10 Max=1.59D-08
 LinEq1:  Iter= 49 NonCon=     1 RMS=1.83D-10 Max=1.13D-08
 LinEq1:  Iter= 50 NonCon=     1 RMS=1.21D-10 Max=8.88D-09
 LinEq1:  Iter= 51 NonCon=     0 RMS=6.71D-11 Max=3.14D-09
 Linear equations converged to 7.236D-10 7.236D-09 after    51 iterations.
 SCF Done:  E(UB3LYP) =  -1618.72268464     a.u. after    7 cycles
            Convg  =    0.1633D-07                   124 Fock formations.
              S**2 =  0.7790                  -V/T =  2.0382
 <Sx>= 0.0000 <Sy>= 0.0000 <Sz>= 0.5000 <S**2>= 0.7790 S= 0.5144
 <L.S>= 0.000000000000E+00
 Annihilation of the first spin contaminant:
 S**2 before annihilation     0.7790,   after     0.7504

 **********************************************************************

[...]
    36   Atom        0.000814      0.000606     -0.001420
    37   Atom        0.001720     -0.000958     -0.000762
    38   Atom       -0.003959     -0.004561      0.008520
    39   Atom       -0.004851     -0.005132      0.009983
    40   Atom       -0.001810     -0.001409      0.003219
    41   Atom       -0.000998     -0.001409      0.002407
    42   Atom       -0.000232     -0.005049      0.005281
    43   Atom       -0.002845     -0.002029      0.004874
    44   Atom       -0.001018     -0.000855      0.001873
    45   Atom       -0.000435     -0.000892      0.001327
    46   Atom        0.001967     -0.002873      0.000906
    47   Atom        0.162235      0.235715     -0.397950
    48   Atom       -0.004979      0.001980      0.003000
    49   Atom        0.015808     -0.015270     -0.000538
    50   Atom        0.009851     -0.015109      0.005258
 --------------------------------------------------------
                        XY            XZ            YZ
 --------------------------------------------------------
     1   Atom        1.145224     -0.487198      0.395888
     2   Atom       -0.000721      0.002212     -0.000056
     3   Atom        0.000982     -0.001600     -0.005417
     4   Atom       -0.001256     -0.005709      0.000327
     5   Atom       -0.002599     -0.000626      0.007046
     6   Atom       -0.002855      0.001751     -0.000456
     7   Atom       -0.001135      0.002203     -0.000734
     8   Atom        0.000716     -0.000645      0.001470
     9   Atom        0.005259     -0.000034     -0.000216
    10   Atom        0.001497     -0.003895     -0.000898
    11   Atom       -0.000781      0.000600     -0.001609
    12   Atom       -0.001649     -0.002735     -0.003312
    13   Atom       -0.003545     -0.001041      0.000449
    14   Atom       -0.001348      0.000869     -0.000346
    15   Atom        0.000769     -0.002067      0.000472
    16   Atom        0.005007      0.000859      0.000821
    17   Atom        0.000694     -0.001727      0.002174
    18   Atom       -0.001255      0.000354      0.000280
    19   Atom       -0.003348     -0.002360      0.001895
    20   Atom       -0.004974      0.001187     -0.001165
    21   Atom        0.001095     -0.000066      0.000180
    22   Atom       -0.000589      0.000065     -0.000177
    23   Atom       -0.002191      0.000436     -0.000496
    24   Atom       -0.000671      0.000550     -0.000175
    25   Atom        0.001327     -0.000021      0.000158
    26   Atom       -0.000516      0.000081     -0.000440
    27   Atom        0.004090      0.003182      0.000814
    28   Atom        0.005482      0.001898      0.001085
    29   Atom        0.003941      0.003503      0.000978
    30   Atom       -0.004477      0.002693     -0.002196
    31   Atom        0.005475      0.001817      0.000752
    32   Atom       -0.001951      0.000795     -0.000884
    33   Atom       -0.000642      0.000771     -0.000213
    34   Atom        0.001044      0.000664      0.000267
    35   Atom        0.002079      0.000495      0.000441
    36   Atom        0.002135      0.000481      0.000414
    37   Atom        0.000845      0.000607      0.000259
    38   Atom        0.001261     -0.003609      0.000953
    39   Atom        0.000360      0.001092      0.003513
    40   Atom        0.000257     -0.000352      0.000601
    41   Atom        0.000008     -0.001948      0.000062
    42   Atom        0.001101     -0.006800     -0.001405
    43   Atom        0.001549      0.003221      0.004229
    44   Atom       -0.000033     -0.000151      0.000614
    45   Atom        0.000067     -0.001077     -0.000153
    46   Atom        0.002573     -0.005376     -0.002280
    47   Atom        0.465750      0.035427      0.135466
    48   Atom        0.015527      0.007972     -0.010310
    49   Atom       -0.006717     -0.023032      0.011667
    50   Atom        0.002088     -0.031160      0.008915
 --------------------------------------------------------


 ---------------------------------------------------------------------------------
              Anisotropic Spin Dipole Couplings in Principal Axis System
 ---------------------------------------------------------------------------------

       Atom             a.u.   MegaHertz   Gauss  10(-4) cm-1        Axes

              Baa    -1.7781   -30.785   -10.985   -10.269  0.7278 -0.6486  0.2228
     1 Fe(57) Bbb     0.6674    11.554     4.123     3.854  0.6528  0.7547  0.0647
              Bcc     1.1107    19.230     6.862     6.415 -0.2101  0.0984  0.9727
 
              Baa    -0.0031    -0.118    -0.042    -0.039  0.5831  0.7929 -0.1769
     2 N(14)  Bbb    -0.0017    -0.066    -0.023    -0.022  0.7377 -0.6080 -0.2935
              Bcc     0.0048     0.184     0.066     0.061  0.3403 -0.0407  0.9394
 
              Baa    -0.0047    -0.182    -0.065    -0.061  0.9355  0.1217  0.3316
     3 N(14)  Bbb    -0.0031    -0.120    -0.043    -0.040 -0.3207  0.6861  0.6529
              Bcc     0.0078     0.302     0.108     0.101  0.1481  0.7172 -0.6809
 
              Baa    -0.0054    -0.208    -0.074    -0.069  0.6199  0.1236  0.7749
     4 N(14)  Bbb    -0.0013    -0.048    -0.017    -0.016  0.0433  0.9806 -0.1910
              Bcc     0.0066     0.256     0.091     0.085  0.7835 -0.1520 -0.6026
 
              Baa    -0.0063    -0.244    -0.087    -0.081 -0.3246 -0.6433  0.6934
     5 N(14)  Bbb    -0.0026    -0.101    -0.036    -0.034  0.9229 -0.0551  0.3810
              Bcc     0.0089     0.345     0.123     0.115 -0.2069  0.7637  0.6116
 
              Baa    -0.0082    -1.104    -0.394    -0.368  0.2768  0.9609 -0.0034
     6 C(13)  Bbb     0.0017     0.229     0.082     0.076  0.8752 -0.2535 -0.4121
              Bcc     0.0065     0.876     0.312     0.292  0.3968 -0.1111  0.9111
 
              Baa    -0.0032    -0.427    -0.152    -0.143 -0.3503  0.0927  0.9320
     7 C(13)  Bbb    -0.0005    -0.071    -0.025    -0.024  0.3406  0.9396  0.0345
              Bcc     0.0037     0.499     0.178     0.166  0.8725 -0.3295  0.3607
 
              Baa    -0.0055    -0.735    -0.262    -0.245 -0.1802  0.9748 -0.1317
     8 C(13)  Bbb    -0.0010    -0.139    -0.049    -0.046  0.9810  0.1879  0.0487
              Bcc     0.0065     0.874     0.312     0.292 -0.0722  0.1204  0.9901
 
              Baa    -0.0056    -0.753    -0.269    -0.251 -0.0386  0.0311  0.9988
     9 C(13)  Bbb    -0.0045    -0.601    -0.214    -0.200  0.9190 -0.3914  0.0477
              Bcc     0.0101     1.354     0.483     0.452  0.3924  0.9197 -0.0135
 
              Baa    -0.0060    -0.803    -0.287    -0.268  0.9242 -0.2580  0.2815
    10 C(13)  Bbb    -0.0015    -0.201    -0.072    -0.067  0.2000  0.9550  0.2189
              Bcc     0.0075     1.004     0.358     0.335 -0.3253 -0.1460  0.9343
 
              Baa    -0.0027    -0.367    -0.131    -0.123 -0.1840  0.2469  0.9514
    11 C(13)  Bbb    -0.0008    -0.109    -0.039    -0.036  0.9596  0.2547  0.1194
              Bcc     0.0035     0.476     0.170     0.159 -0.2129  0.9350 -0.2837
 
              Baa    -0.0088    -1.179    -0.421    -0.393  0.9498  0.2113  0.2307
    12 C(13)  Bbb     0.0011     0.143     0.051     0.048 -0.2963  0.8441  0.4468
              Bcc     0.0077     1.035     0.369     0.345 -0.1003 -0.4928  0.8644
 
              Baa    -0.0063    -0.845    -0.301    -0.282  0.2808  0.9595 -0.0238
    13 C(13)  Bbb    -0.0006    -0.087    -0.031    -0.029  0.1505 -0.0195  0.9884
              Bcc     0.0069     0.932     0.333     0.311  0.9479 -0.2812 -0.1498
 
              Baa    -0.0028    -0.373    -0.133    -0.125 -0.1344  0.0652  0.9888
    14 C(13)  Bbb    -0.0008    -0.107    -0.038    -0.036  0.3414  0.9398 -0.0156
              Bcc     0.0036     0.480     0.171     0.160  0.9303 -0.3354  0.1486
 
              Baa    -0.0040    -0.542    -0.193    -0.181 -0.1815  0.9743 -0.1334
    15 C(13)  Bbb     0.0000     0.004     0.001     0.001  0.7319  0.2245  0.6433
              Bcc     0.0040     0.538     0.192     0.179 -0.6568 -0.0191  0.7539
 
              Baa    -0.0059    -0.794    -0.283    -0.265 -0.3212  0.0592  0.9452
    16 C(13)  Bbb    -0.0043    -0.575    -0.205    -0.192  0.8714 -0.3724  0.3194
              Bcc     0.0102     1.369     0.488     0.457  0.3709  0.9262  0.0680
 
              Baa    -0.0044    -0.589    -0.210    -0.196  0.9228 -0.2597  0.2844
    17 C(13)  Bbb    -0.0002    -0.025    -0.009    -0.008  0.3555  0.8586 -0.3694
              Bcc     0.0046     0.614     0.219     0.205 -0.1482  0.4420  0.8847
 
              Baa    -0.0022    -0.298    -0.106    -0.099 -0.3960 -0.1448  0.9068
    18 C(13)  Bbb    -0.0011    -0.151    -0.054    -0.050  0.8751  0.2397  0.4205
              Bcc     0.0033     0.448     0.160     0.150 -0.2783  0.9600  0.0318
 
              Baa    -0.0064    -0.856    -0.306    -0.286  0.9253  0.2096  0.3161
    19 C(13)  Bbb    -0.0009    -0.126    -0.045    -0.042 -0.2218 -0.3772  0.8992
              Bcc     0.0073     0.983     0.351     0.328 -0.3077  0.9021  0.3025
 
              Baa    -0.0037    -0.491    -0.175    -0.164 -0.2754 -0.0435  0.9603
    20 C(13)  Bbb    -0.0033    -0.441    -0.157    -0.147  0.6902  0.6865  0.2290
              Bcc     0.0069     0.932     0.333     0.311 -0.6692  0.7259 -0.1590
 
              Baa    -0.0012    -0.667    -0.238    -0.222  0.8560 -0.3375  0.3916
    21 H(1)   Bbb    -0.0009    -0.482    -0.172    -0.161 -0.3825  0.0958  0.9190
              Bcc     0.0022     1.149     0.410     0.383  0.3476  0.9364  0.0470
 
              Baa    -0.0009    -0.504    -0.180    -0.168  0.8255  0.1479 -0.5447
    22 H(1)   Bbb    -0.0009    -0.475    -0.170    -0.159  0.5200  0.1758  0.8359
              Bcc     0.0018     0.980     0.350     0.327 -0.2194  0.9733 -0.0682
 
              Baa    -0.0015    -0.817    -0.292    -0.273  0.7118  0.6856  0.1530
    23 H(1)   Bbb    -0.0014    -0.767    -0.274    -0.256 -0.2152  0.0055  0.9766
              Bcc     0.0030     1.584     0.565     0.528 -0.6687  0.7280 -0.1514
 
              Baa    -0.0009    -0.491    -0.175    -0.164  0.0062  0.6477  0.7619
    24 H(1)   Bbb    -0.0009    -0.470    -0.168    -0.157  0.3443  0.7139 -0.6097
              Bcc     0.0018     0.961     0.343     0.321  0.9388 -0.2661  0.2186
 
              Baa    -0.0014    -0.751    -0.268    -0.251  0.9065 -0.3886  0.1651
    25 H(1)   Bbb    -0.0009    -0.487    -0.174    -0.162 -0.1686  0.0254  0.9854
              Bcc     0.0023     1.238     0.442     0.413  0.3871  0.9211  0.0425
 
              Baa    -0.0010    -0.512    -0.183    -0.171  0.0609  0.1777  0.9822
    26 H(1)   Bbb    -0.0009    -0.465    -0.166    -0.155  0.9785  0.1838 -0.0940
              Bcc     0.0018     0.977     0.349     0.326 -0.1973  0.9668 -0.1627
 
              Baa    -0.0061    -0.813    -0.290    -0.271 -0.2320  0.0483  0.9715
    27 C(13)  Bbb    -0.0041    -0.552    -0.197    -0.184 -0.2877  0.9507 -0.1159
              Bcc     0.0102     1.365     0.487     0.455  0.9292  0.3064  0.2067
 
              Baa    -0.0053    -0.711    -0.254    -0.237 -0.2757  0.0621  0.9592
    28 C(13)  Bbb    -0.0029    -0.395    -0.141    -0.132 -0.6459  0.7271 -0.2328
              Bcc     0.0082     1.105     0.394     0.369  0.7119  0.6837  0.1603
 
              Baa    -0.0056    -0.748    -0.267    -0.249 -0.2704  0.0476  0.9616
    29 C(13)  Bbb    -0.0042    -0.568    -0.203    -0.189 -0.2801  0.9517 -0.1259
              Bcc     0.0098     1.316     0.469     0.439  0.9211  0.3034  0.2440
 
              Baa    -0.0055    -0.736    -0.263    -0.246 -0.3087  0.0838  0.9474
    30 C(13)  Bbb    -0.0022    -0.297    -0.106    -0.099  0.7017  0.6926  0.1674
              Bcc     0.0077     1.033     0.369     0.345 -0.6422  0.7165 -0.2726
 
              Baa    -0.0057    -0.766    -0.273    -0.256 -0.2578  0.0845  0.9625
    31 C(13)  Bbb    -0.0027    -0.357    -0.127    -0.119 -0.6434  0.7282 -0.2363
              Bcc     0.0084     1.123     0.401     0.375  0.7208  0.6802  0.1333
 
              Baa    -0.0015    -0.788    -0.281    -0.263 -0.2459  0.1611  0.9558
    32 H(1)   Bbb    -0.0014    -0.748    -0.267    -0.249  0.7299  0.6796  0.0733
              Bcc     0.0029     1.536     0.548     0.512 -0.6377  0.7157 -0.2847
 
              Baa    -0.0009    -0.492    -0.176    -0.164 -0.3423 -0.0840  0.9358
    33 H(1)   Bbb    -0.0009    -0.463    -0.165    -0.155  0.2207  0.9610  0.1670
              Bcc     0.0018     0.955     0.341     0.319  0.9133 -0.2637  0.3104
 
              Baa    -0.0014    -0.726    -0.259    -0.242 -0.3052  0.9491 -0.0785
    34 H(1)   Bbb    -0.0009    -0.470    -0.168    -0.157 -0.2480  0.0004  0.9688
              Bcc     0.0022     1.196     0.427     0.399  0.9195  0.3151  0.2352
 
              Baa    -0.0015    -0.796    -0.284    -0.265 -0.2709  0.0667  0.9603
    35 H(1)   Bbb    -0.0014    -0.738    -0.263    -0.246 -0.6466  0.7264 -0.2329
              Bcc     0.0029     1.534     0.547     0.512  0.7131  0.6840  0.1537
 
              Baa    -0.0015    -0.812    -0.290    -0.271 -0.3155  0.1336  0.9395
    36 H(1)   Bbb    -0.0014    -0.756    -0.270    -0.252 -0.6213  0.7192 -0.3110
              Bcc     0.0029     1.568     0.560     0.523  0.7172  0.6818  0.1439
 
              Baa    -0.0012    -0.652    -0.233    -0.218 -0.2224  0.9454 -0.2383
    37 H(1)   Bbb    -0.0009    -0.476    -0.170    -0.159 -0.2757  0.1735  0.9455
              Bcc     0.0021     1.128     0.402     0.376  0.9352  0.2760  0.2220
 
              Baa    -0.0062    -0.240    -0.086    -0.080  0.7150 -0.6643  0.2178
    38 N(14)  Bbb    -0.0033    -0.127    -0.045    -0.042  0.6511  0.7462  0.1388
              Bcc     0.0095     0.367     0.131     0.122 -0.2548  0.0426  0.9661
 
              Baa    -0.0059    -0.795    -0.284    -0.265 -0.1158  0.9715 -0.2066
    39 C(13)  Bbb    -0.0049    -0.660    -0.236    -0.220  0.9906  0.0977 -0.0956
              Bcc     0.0108     1.455     0.519     0.485  0.0727  0.2158  0.9737
 
              Baa    -0.0020    -0.077    -0.028    -0.026  0.8642 -0.4899  0.1147
    40 N(14)  Bbb    -0.0013    -0.051    -0.018    -0.017  0.4993  0.8631 -0.0756
              Bcc     0.0033     0.128     0.046     0.043 -0.0620  0.1226  0.9905
 
              Baa    -0.0019    -0.253    -0.090    -0.084  0.9081 -0.0683  0.4131
    41 C(13)  Bbb    -0.0014    -0.189    -0.067    -0.063  0.0668  0.9976  0.0180
              Bcc     0.0033     0.442     0.158     0.147 -0.4134  0.0113  0.9105
 
              Baa    -0.0053    -0.710    -0.253    -0.237 -0.2758  0.9599 -0.0498
    42 C(13)  Bbb    -0.0048    -0.641    -0.229    -0.214  0.7843  0.2546  0.5657
              Bcc     0.0101     1.352     0.482     0.451 -0.5557 -0.1169  0.8231
 
              Baa    -0.0040    -2.159    -0.770    -0.720 -0.4911  0.8423 -0.2220
    43 H(1)   Bbb    -0.0040    -2.138    -0.763    -0.713  0.8134  0.3523 -0.4628
              Bcc     0.0081     4.297     1.533     1.433  0.3116  0.4079  0.8582
 
              Baa    -0.0010    -0.547    -0.195    -0.182  0.9987  0.0207  0.0475
    44 H(1)   Bbb    -0.0010    -0.527    -0.188    -0.176 -0.0102  0.9776 -0.2104
              Bcc     0.0020     1.074     0.383     0.358 -0.0508  0.2096  0.9765
 
              Baa    -0.0009    -0.504    -0.180    -0.168  0.8954  0.1098  0.4316
    45 H(1)   Bbb    -0.0009    -0.481    -0.172    -0.161 -0.1253  0.9921  0.0075
              Bcc     0.0018     0.986     0.352     0.329 -0.4273 -0.0608  0.9020
 
              Baa    -0.0040    -2.136    -0.762    -0.712 -0.6310  0.6787 -0.3758
    46 H(1)   Bbb    -0.0039    -2.096    -0.748    -0.699  0.3198  0.6689  0.6710
              Bcc     0.0079     4.232     1.510     1.412  0.7068  0.3032 -0.6392
 
              Baa    -0.4375    31.654    11.295    10.559  0.1947 -0.3212  0.9268
    47 O(17)  Bbb    -0.2429    17.578     6.272     5.863  0.7178 -0.5972 -0.3578
              Bcc     0.6804   -49.232   -17.567   -16.422  0.6684  0.7349  0.1143
 
              Baa    -0.0235     1.702     0.607     0.568  0.6808 -0.5900 -0.4340
    48 O(17)  Bbb     0.0079    -0.571    -0.204    -0.191  0.5644  0.0449  0.8243
              Bcc     0.0156    -1.130    -0.403    -0.377  0.4669  0.8061 -0.3636
 
              Baa    -0.0231    -0.890    -0.318    -0.297 -0.2486  0.7328 -0.6334
    49 N(14)  Bbb    -0.0120    -0.463    -0.165    -0.154  0.5770  0.6373  0.5108
              Bcc     0.0351     1.353     0.483     0.451  0.7780 -0.2385 -0.5813
 
              Baa    -0.0285     2.063     0.736     0.688  0.5559 -0.5185  0.6497
    50 O(17)  Bbb    -0.0107     0.772     0.275     0.257  0.4108  0.8508  0.3275
              Bcc     0.0392    -2.835    -1.012    -0.946  0.7226 -0.0849 -0.6860
 

 ---------------------------------------------------------------------------------

 1\1\GINC-COMPUTE-1-35\FOpt\UB3LYP\Gen\C23H16Fe1N7O3(2)\CARABETL\14-Sep
 -2012\0\\# ub3lyp chkbasis scf=(qc,maxcycle=999) guess=read geom=allch
 eckpoint opt=(modredundant,maxcycle=200)\\NOD_iso_150_250_s1 FePImOONO
  wavefunction from broken-symmetry guess\\0,2\Fe,0.0175209389,-0.02124
 62333,0.0183412184\N,0.0262911255,-0.0184199828,2.0414433393\N,2.04051
 87871,-0.0001454245,0.0324216718\N,0.0248976639,-0.1203431918,-1.99497
 40114\N,-1.9882506867,-0.1570389694,0.0116743995\C,-1.0632158148,-0.24
 30127182,-2.8184623276\C,-0.6416888767,-0.2299805531,-4.1973218076\C,0
 .7103627875,-0.0873705053,-4.1940724801\C,-2.8087292309,-0.0581080683,
 1.1010426497\C,-4.1899676083,-0.1192717304,0.6850708169\C,-4.187244385
 6,-0.2561870171,-0.6659697439\C,-2.8052155302,-0.2654329725,-1.0802838
 648\C,1.1168874868,0.0036502315,2.8664508638\C,0.6932588697,0.08731688
 35,4.244004947\C,-0.6639426193,0.1354964347,4.2340968086\C,2.857098443
 6,0.0873752292,-1.0625585845\C,4.2378066336,0.1501717628,-0.6448055905
 \C,4.2396621737,0.0976854753,0.7124149734\C,2.8600599895,0.0133548947,
 1.127987054\C,2.4401017176,-0.0078576723,2.4501340434\H,5.0812090059,0
 .2283679737,-1.3152787594\H,5.0847750217,0.1259530318,1.3845835005\H,3
 .2052177196,0.0138795735,3.2168692534\H,1.3603507955,0.1186075973,5.09
 298004\H,-5.0370756808,-0.0599432202,1.3526785465\H,-5.0316591386,-0.3
 293729928,-1.3355527336\C,-1.0734033028,0.06849119,2.8507195018\C,-2.3
 931915168,0.057880559,2.4210450766\C,1.1202419385,-0.0231750172,-2.812
 1023649\C,-2.3826529046,-0.3327430251,-2.3990469387\C,2.4382459213,0.0
 834277194,-2.386001972\H,-3.1449938866,-0.4181802169,-3.1640508699\H,-
 1.3061329938,-0.3075907906,-5.0454470776\H,1.3807287955,-0.0246402579,
 -5.0388383093\H,3.2027458119,0.1595691544,-3.1499921943\H,-3.163539425
 7,0.1330879556,3.1792114335\H,-1.3395899254,0.211616626,5.0734974273\N
 ,0.1038779589,-2.1205956303,0.0731162105\C,0.7790382186,-2.8892752955,
 -0.7577875972\N,0.6181514684,-4.1925473167,-0.4268445609\C,-0.20847440
 15,-4.2539118027,0.6775413478\C,-0.5170310525,-2.9577548689,0.97464796
 41\H,1.3792114121,-2.5482475935,-1.584089131\H,1.0323768653,-4.9749678
 464,-0.9070340804\H,-0.4927030753,-5.1850543928,1.1358028211\H,-1.1365
 076173,-2.5718954921,1.7648673653\O,0.0209771871,1.7882799914,0.095886
 0509\O,-0.9729557455,2.4335117588,-0.8237777989\N,-0.6434371444,3.2037
 434047,-2.1663031635\O,0.4579278265,3.2527733513,-2.4943333632\\Versio
 n=EM64L-G09RevB.01\State=2-A\HF=-1618.7247366\S2=0.778155\S2-1=0.\S2A=
 0.750379\RMSD=0.000e+00\RMSF=4.352e-03\Dipole=0.4568766,-3.3482715,-0.
 2275093\Quadrupole=0.6771874,-3.2536202,2.5764328,-1.7762201,-2.571288
 3,2.5724486\PG=C01 [X(C23H16Fe1N7O3)]\\@


 THOSE WHO ARE UNABLE TO LEARN FROM PAST MEETINGS
 ARE CONDEMNED TO REPEAT THEM.
 Job cpu time: 11 days  1 hours 53 minutes 23.4 seconds.
 File lengths (MBytes):  RWF=    402 Int=      0 D2E=      0 Chk=     88 Scr=      1
 Normal termination of Gaussian 09 at Fri Sep 14 23:58:19 2012.
