 Entering Gaussian System, Link 0=g09
 Initial command:
 /share/apps/g09/l1.exe /state/partition1/Gau-13720.inp -scrdir=/state/partition1/
 Entering Link 1 = /share/apps/g09/l1.exe PID=     13721.
  
 Copyright (c) 1988,1990,1992,1993,1995,1998,2003,2009,2010,
            Gaussian, Inc.  All Rights Reserved.
  
 This is part of the Gaussian(R) 09 program.  It is based on
 the Gaussian(R) 03 system (copyright 2003, Gaussian, Inc.),
 the Gaussian(R) 98 system (copyright 1998, Gaussian, Inc.),
 the Gaussian(R) 94 system (copyright 1995, Gaussian, Inc.),
 the Gaussian 92(TM) system (copyright 1992, Gaussian, Inc.),
 the Gaussian 90(TM) system (copyright 1990, Gaussian, Inc.),
 the Gaussian 88(TM) system (copyright 1988, Gaussian, Inc.),
 the Gaussian 86(TM) system (copyright 1986, Carnegie Mellon
 University), and the Gaussian 82(TM) system (copyright 1983,
 Carnegie Mellon University). Gaussian is a federally registered
 trademark of Gaussian, Inc.
  
 This software contains proprietary and confidential information,
 including trade secrets, belonging to Gaussian, Inc.
  
 This software is provided under written license and may be
 used, copied, transmitted, or stored only in accord with that
 written license.
  
 The following legend is applicable only to US Government
 contracts under FAR:
  
                    RESTRICTED RIGHTS LEGEND
  
 Use, reproduction and disclosure by the US Government is
 subject to restrictions as set forth in subparagraphs (a)
 and (c) of the Commercial Computer Software - Restricted
 Rights clause in FAR 52.227-19.
  
 Gaussian, Inc.
 340 Quinnipiac St., Bldg. 40, Wallingford CT 06492
  
  
 ---------------------------------------------------------------
 Warning -- This program may not be used in any manner that
 competes with the business of Gaussian, Inc. or will provide
 assistance to any competitor of Gaussian, Inc.  The licensee
 of this program is prohibited from giving any competitor of
 Gaussian, Inc. access to this program.  By using this program,
 the user acknowledges that Gaussian, Inc. is engaged in the
 business of creating and licensing software in the field of
 computational chemistry and represents and warrants to the
 licensee that it is not a competitor of Gaussian, Inc. and that
 it will not use this program in any manner prohibited above.
 ---------------------------------------------------------------
  

 Cite this work as:
 Gaussian 09, Revision B.01,
 M. J. Frisch, G. W. Trucks, H. B. Schlegel, G. E. Scuseria, 
 M. A. Robb, J. R. Cheeseman, G. Scalmani, V. Barone, B. Mennucci, 
 G. A. Petersson, H. Nakatsuji, M. Caricato, X. Li, H. P. Hratchian, 
 A. F. Izmaylov, J. Bloino, G. Zheng, J. L. Sonnenberg, M. Hada, 
 M. Ehara, K. Toyota, R. Fukuda, J. Hasegawa, M. Ishida, T. Nakajima, 
 Y. Honda, O. Kitao, H. Nakai, T. Vreven, J. A. Montgomery, Jr., 
 J. E. Peralta, F. Ogliaro, M. Bearpark, J. J. Heyd, E. Brothers, 
 K. N. Kudin, V. N. Staroverov, T. Keith, R. Kobayashi, J. Normand, 
 K. Raghavachari, A. Rendell, J. C. Burant, S. S. Iyengar, J. Tomasi, 
 M. Cossi, N. Rega, J. M. Millam, M. Klene, J. E. Knox, J. B. Cross, 
 V. Bakken, C. Adamo, J. Jaramillo, R. Gomperts, R. E. Stratmann, 
 O. Yazyev, A. J. Austin, R. Cammi, C. Pomelli, J. W. Ochterski, 
 R. L. Martin, K. Morokuma, V. G. Zakrzewski, G. A. Voth, 
 P. Salvador, J. J. Dannenberg, S. Dapprich, A. D. Daniels, 
 O. Farkas, J. B. Foresman, J. V. Ortiz, J. Cioslowski, 
 and D. J. Fox, Gaussian, Inc., Wallingford CT, 2010.
 
 ******************************************
 Gaussian 09:  EM64L-G09RevB.01 12-Aug-2010
                10-Sep-2012 
 ******************************************
 %chk=NOD_iso_150_250_s1.chk
 %mem=2500MB
 %nprocshared=8
 Will use up to    8 processors via shared memory.
 ----------------------------------------------------------------------
 # ub3lyp/gen pseudo=read scf=(maxcycle=999) guess=(only,fragment=3) po
 p=none
 ----------------------------------------------------------------------
 1/38=1,62=2003/1;
 2/12=2,17=6,18=5,40=1/2;
 1/38=1,53=4172,62=2003/22;
 3/5=7,11=2,16=1,17=8,25=1,30=1,74=-5,89=1,116=2/1,2;
 4//1;
 1/53=3042,62=2003,63=1/22;
 3/5=7,6=11,11=2,16=1,17=8,25=1,30=1,74=-5,82=7,89=1,116=2/1,2;
 4//1;
 1/53=2032,62=2003,63=2/22;
 3/5=7,6=11,11=2,16=1,17=8,25=1,30=1,74=-5,82=7,89=1,116=2/1,2;
 4//1;
 1/53=1022,62=2003,63=3/22;
 3/5=7,6=11,11=2,16=1,17=8,25=1,30=1,74=-5,82=7,89=1,116=2/1,2;
 4//1;
 1/53=4014,62=2003,63=7/22;
 99/5=5/99;
 --------------------------------------------------------------------
 NOD_iso_150_250_s1 FePImOONO wavefunction from broken-symmetry guess
 --------------------------------------------------------------------
 Symbolic Z-matrix:
 Charge and multiplicity card seems defective:
 Charge =  0 Multiplicity = 2 in supermolecule
 Charge =  0 Multiplicity = 3 in fragment  1.
 Charge =  0 Multiplicity =-3 in fragment  2.
 Charge =  0 Multiplicity = 2 in fragment  3.
 Fe(Fragment=1)        0.        0.        0. 
 N(Fragment=1)         0.        0.        2.02414 
 N(Fragment=1)         2.02449   0.       -0.01205 
 N(Fragment=1)         0.00658  -0.16896  -2.01636 
 N(Fragment=1)        -2.01621  -0.16607   0.01956 
 C(Fragment=1)        -1.09755  -0.24979  -2.83131 
 C(Fragment=1)        -0.68745  -0.25238  -4.22605 
 C(Fragment=1)         0.67272  -0.16755  -4.23861 
 C(Fragment=1)        -2.84276  -0.10954   1.11819 
 C(Fragment=1)        -4.23416  -0.16065   0.69954 
 C(Fragment=1)        -4.23057  -0.2469   -0.66023 
 C(Fragment=1)        -2.83809  -0.24676  -1.07916 
 C(Fragment=1)         1.10387   0.0793    2.83925 
 C(Fragment=1)         0.69024   0.15997   4.23101 
 C(Fragment=1)        -0.67194   0.1334    4.24058 
 C(Fragment=1)         2.84779   0.03277  -1.11465 
 C(Fragment=1)         4.23692   0.13102  -0.69756 
 C(Fragment=1)         4.23524   0.1589    0.66504 
 C(Fragment=1)         2.84636   0.07912   1.08701 
 C(Fragment=1)         2.43041   0.10104   2.4097 
 H(Fragment=1)         5.07875   0.17916  -1.3701 
 H(Fragment=1)         5.07696   0.23322   1.33559 
 H(Fragment=1)         3.19777   0.16689   3.17267 
 H(Fragment=1)         1.36593   0.23318   5.06864 
 H(Fragment=1)        -5.07891  -0.12776   1.3692 
 H(Fragment=1)        -5.07327  -0.29965  -1.33152 
 C(Fragment=1)        -1.09726   0.03427   2.85377 
 C(Fragment=1)        -2.41957  -0.02308   2.44416 
 C(Fragment=1)         1.10034  -0.11396  -2.85022 
 C(Fragment=1)        -2.42291  -0.30088  -2.3998 
 C(Fragment=1)         2.42344  -0.02981  -2.44219 
 H(Fragment=1)        -3.19292  -0.3626   -3.16044 
 H(Fragment=1)        -1.36418  -0.3044   -5.06448 
 H(Fragment=1)         1.33661  -0.13467  -5.088 
 H(Fragment=1)         3.18352   0.0057   -3.21429 
 H(Fragment=1)        -3.18255   0.01227   3.21326 
 H(Fragment=1)        -1.3397    0.18074   5.08616 
 N(Fragment=1)         0.09364  -2.08129   0.08026 
 C(Fragment=1)         0.89497  -2.81989  -0.66456 
 N(Fragment=1)         0.72124  -4.14073  -0.37617 
 C(Fragment=1)        -0.24571  -4.24135   0.60748 
 C(Fragment=1)        -0.62388  -2.94694   0.87803 
 H(Fragment=1)         1.59041  -2.44709  -1.39783 
 H(Fragment=1)         1.21422  -4.91182  -0.80732 
 H(Fragment=1)        -0.56666  -5.1845    1.01196 
 H(Fragment=1)        -1.35289  -2.58666   1.58238 
 O(Fragment=2)         0.01273   1.80579   0.01775 
 O(Fragment=2)        -0.93994   2.39916  -0.86469 
 N(Fragment=3)        -0.35599   3.18135  -1.88365 
 O(Fragment=3)         0.82786   3.19836  -1.91049 
 
                          Input orientation:                          
 ---------------------------------------------------------------------
 Center     Atomic      Atomic             Coordinates (Angstroms)
 Number     Number       Type             X           Y           Z
 ---------------------------------------------------------------------
      1         26           0        0.000000    0.000000    0.000000
      2          7           0        0.000000    0.000000    2.024140
      3          7           0        2.024490    0.000000   -0.012050
      4          7           0        0.006580   -0.168960   -2.016360
      5          7           0       -2.016210   -0.166070    0.019560
      6          6           0       -1.097550   -0.249790   -2.831310
      7          6           0       -0.687450   -0.252380   -4.226050
      8          6           0        0.672720   -0.167550   -4.238610
      9          6           0       -2.842760   -0.109540    1.118190
     10          6           0       -4.234160   -0.160650    0.699540
     11          6           0       -4.230570   -0.246900   -0.660230
     12          6           0       -2.838090   -0.246760   -1.079160
     13          6           0        1.103870    0.079300    2.839250
     14          6           0        0.690240    0.159970    4.231010
     15          6           0       -0.671940    0.133400    4.240580
     16          6           0        2.847790    0.032770   -1.114650
     17          6           0        4.236920    0.131020   -0.697560
     18          6           0        4.235240    0.158900    0.665040
     19          6           0        2.846360    0.079120    1.087010
     20          6           0        2.430410    0.101040    2.409700
     21          1           0        5.078750    0.179160   -1.370100
     22          1           0        5.076960    0.233220    1.335590
     23          1           0        3.197770    0.166890    3.172670
     24          1           0        1.365930    0.233180    5.068640
     25          1           0       -5.078910   -0.127760    1.369200
     26          1           0       -5.073270   -0.299650   -1.331520
     27          6           0       -1.097260    0.034270    2.853770
     28          6           0       -2.419570   -0.023080    2.444160
     29          6           0        1.100340   -0.113960   -2.850220
     30          6           0       -2.422910   -0.300880   -2.399800
     31          6           0        2.423440   -0.029810   -2.442190
     32          1           0       -3.192920   -0.362600   -3.160440
     33          1           0       -1.364180   -0.304400   -5.064480
     34          1           0        1.336610   -0.134670   -5.088000
     35          1           0        3.183520    0.005700   -3.214290
     36          1           0       -3.182550    0.012270    3.213260
     37          1           0       -1.339700    0.180740    5.086160
     38          7           0        0.093640   -2.081290    0.080260
     39          6           0        0.894970   -2.819890   -0.664560
     40          7           0        0.721240   -4.140730   -0.376170
     41          6           0       -0.245710   -4.241350    0.607480
     42          6           0       -0.623880   -2.946940    0.878030
     43          1           0        1.590410   -2.447090   -1.397830
     44          1           0        1.214220   -4.911820   -0.807320
     45          1           0       -0.566660   -5.184500    1.011960
     46          1           0       -1.352890   -2.586660    1.582380
     47          8           0        0.012730    1.805790    0.017750
     48          8           0       -0.939940    2.399160   -0.864690
     49          7           0       -0.355990    3.181350   -1.883650
     50          8           0        0.827860    3.198360   -1.910490
 ---------------------------------------------------------------------
                    Distance matrix (angstroms):
                    1          2          3          4          5
     1  Fe   0.000000
     2  N    2.024140   0.000000
     3  N    2.024526   2.871346   0.000000
     4  N    2.023437   4.044036   2.849169   0.000000
     5  N    2.023132   2.847986   4.044235   2.869958   0.000000
     6  C    3.046855   4.984216   4.213995   1.374693   2.996399
     7  C    4.289030   6.292945   5.017580   2.317621   4.449523
     8  C    4.294932   6.301005   4.440627   2.319944   5.036105
     9  C    3.056736   2.985637   4.997956   4.236469   1.375997
    10  C    4.294563   4.439424   6.301021   5.035877   2.319850
    11  C    4.288891   5.016425   6.293399   4.449562   2.317766
    12  C    3.046347   4.212614   4.984406   2.996088   1.374476
    13  C    3.047320   1.374490   2.997289   4.984238   4.212571
    14  C    4.289926   2.317822   4.450772   6.293268   5.016721
    15  C    4.295558   2.319893   5.037201   6.300882   4.440017
    16  C    3.058337   4.238276   1.376453   2.987683   4.998446
    17  C    4.295957   5.037490   2.319900   4.441283   6.301124
    18  C    4.290080   4.450804   2.317567   5.017864   6.293082
    19  C    3.047887   2.997705   1.374650   4.213882   4.984391
    20  C    3.423997   2.462876   2.457611   5.053500   5.055348
    21  H    5.263361   6.111192   3.347372   5.125012   7.238011
    22  H    5.254875   5.128744   3.344861   6.091475   7.225263
    23  H    4.507707   3.401868   3.398070   6.101026   6.102340
    24  H    5.254641   3.345014   5.128497   7.225426   6.090278
    25  H    5.261783   5.122558   7.237573   6.109494   3.347107
    26  H    5.253647   6.090017   7.225579   5.127471   3.344978
    27  C    3.057639   1.376023   4.237856   4.997793   2.986193
    28  C    3.439298   2.455864   5.077713   5.079737   2.462079
    29  C    3.057366   4.998312   2.987013   1.376466   4.236890
    30  C    3.423458   5.052946   5.056802   2.463098   2.457007
    31  C    3.440675   5.081540   2.462850   2.458029   5.078314
    32  H    4.507172   6.099679   6.104523   3.403412   3.396420
    33  H    5.253818   7.225108   6.091206   3.344901   5.127547
    34  H    5.262357   7.237900   5.124118   3.347406   6.109792
    35  H    4.523991   6.129925   3.405543   3.399778   6.125723
    36  H    4.522589   3.397467   6.125034   6.127995   3.404684
    37  H    5.262745   3.347152   6.110825   7.237441   5.123317
    38  N    2.084941   2.849422   2.840505   2.839085   2.850126
    39  C    3.032225   3.997732   3.106986   3.105484   3.998218
    40  N    4.219874   4.840178   4.356224   4.356136   4.842330
    41  C    4.291673   4.478432   4.850430   4.851036   4.481989
    42  C    3.137613   3.222926   4.060857   4.061052   3.226266
    43  H    3.235982   4.497503   2.845534   2.842705   4.496638
    44  H    5.123678   5.798058   5.041326   5.041319   5.800134
    45  H    5.312646   5.312688   5.885720   5.886847   5.317019
    46  H    3.320399   2.952334   4.543095   4.543607   2.956629
    47  O    1.805922   2.699378   2.703506   2.835010   2.829281
    48  O    2.717930   3.871020   3.907788   2.969425   2.919017
    49  N    3.714277   5.051588   4.392102   3.372484   4.193299
    50  O    3.816390   5.137721   3.907109   3.467644   4.809700
                    6          7          8          9         10
     6  C    0.000000
     7  C    1.453784   0.000000
     8  C    2.262988   1.362871   0.000000
     9  C    4.320183   5.764258   6.407595   0.000000
    10  C    4.723682   6.070338   6.961526   1.453917   0.000000
    11  C    3.811746   5.026808   6.070696   2.260014   1.362507
    12  C    2.469720   3.811588   4.723789   2.201635   2.262786
    13  C    6.091781   7.296390   7.095275   4.309710   5.755910
    14  C    7.296606   8.578457   8.475968   4.716394   6.068261
    15  C    7.095041   8.475429   8.590422   3.810617   5.031386
    16  C    4.311899   4.718055   3.811848   6.114588   7.313188
    17  C    5.757992   6.070145   5.033061   7.312776   8.590469
    18  C    6.389847   6.951603   6.069918   7.097569   8.475496
    19  C    5.569187   6.389547   5.757411   5.692333   7.095166
    20  C    6.327541   7.340241   6.881979   5.433108   6.885465
    21  H    6.361275   6.449166   5.268933   8.308144   9.546160
    22  H    7.464645   8.024716   7.115452   7.930114   9.341127
    23  H    7.393996   8.367304   7.836759   6.386337   7.839467
    24  H    8.289222   9.531180   9.341629   5.782438   7.113729
    25  H    5.788817   7.113879   8.033079   2.250268   1.078485
    26  H    4.249495   5.255089   6.440887   3.318493   2.201961
    27  C    5.692172   7.097462   7.312689   2.465703   3.810360
    28  C    5.443319   6.895253   7.364954   1.394547   2.520984
    29  C    2.202164   2.260146   1.453739   5.594313   6.407797
    30  C    1.394772   2.519794   3.603044   3.548118   3.592520
    31  C    3.549250   3.592956   2.512194   6.357321   7.362827
    32  H    2.124059   2.724895   4.017918   4.300387   4.003050
    33  H    2.249694   1.078719   2.202215   6.359998   6.440604
    34  H    3.321301   2.203096   1.078561   7.482283   8.033043
    35  H    4.305753   4.009323   2.717235   7.422918   8.388547
    36  H    6.399432   7.851044   8.392009   2.125938   2.730306
    37  H    7.932864   9.345067   9.545809   4.253027   5.266582
    38  N    3.640133   4.743345   4.759241   3.686128   4.775167
    39  C    3.907730   4.666945   4.456247   4.949224   5.936354
    40  N    4.947234   5.650243   5.541386   5.584416   6.446253
    41  C    5.336990   6.282518   6.397183   4.906867   5.706866
    42  C    4.610660   5.772030   5.965416   3.609978   4.563923
    43  H    3.756078   4.243139   3.756127   5.607806   6.599423
    44  H    5.583488   6.083950   5.880057   6.574844   7.384381
    45  H    6.277255   7.195634   7.367112   5.563015   6.227940
    46  H    5.000682   6.295199   6.621111   2.927680   3.868675
    47  O    3.684464   4.768244   4.737748   3.610163   4.729461
    48  O    3.302934   4.288724   4.535638   3.721037   4.455483
    49  N    3.636027   4.169797   4.221281   5.101473   5.734286
    50  O    4.055225   4.423301   4.095554   5.795563   6.612053
                   11         12         13         14         15
    11  C    0.000000
    12  C    1.454133   0.000000
    13  C    6.388194   5.567702   0.000000
    14  C    6.950118   6.388462   1.454164   0.000000
    15  C    6.068477   5.756419   2.262776   1.362473   0.000000
    16  C    7.098443   5.692858   4.321660   5.766046   6.409143
    17  C    8.476002   7.095358   4.725220   6.072115   6.962912
    18  C    8.578517   7.296492   3.813005   5.028237   6.071701
    19  C    7.296717   6.091918   2.471157   3.813152   4.725080
    20  C    7.342628   6.328523   1.394523   2.519689   3.602464
    21  H    9.346062   7.933625   5.790360   7.115604   8.034442
    22  H    9.531208   8.289114   4.250897   5.256628   6.441955
    23  H    8.369145   7.394645   2.122088   2.721734   4.014500
    24  H    8.023169   7.463215   2.250008   1.078675   2.201943
    25  H    2.202830   3.321130   6.358513   6.446382   5.266347
    26  H    1.078683   2.250003   7.462974   8.023156   7.113897
    27  C    4.716448   4.310151   2.201638   2.260032   1.453948
    28  C    3.600980   3.555134   3.547000   3.591275   2.511139
    29  C    5.764749   4.320361   5.692752   7.098383   7.313112
    30  C    2.509313   1.385422   6.326955   7.339736   6.881071
    31  C    6.891905   5.439542   5.444886   6.897217   7.366643
    32  H    2.709456   2.114486   7.392832   8.365736   7.834313
    33  H    5.255180   4.249530   8.288995   9.531129   9.341039
    34  H    7.114157   5.788910   7.933552   9.346045   9.546127
    35  H    7.845748   6.393927   6.401227   7.853199   8.393805
    36  H    4.021124   4.314003   4.303228   4.007010   2.715368
    37  H    6.446782   6.359174   3.321134   2.202809   1.078494
    38  N    4.755219   3.647574   3.647018   4.754777   4.774854
    39  C    5.735107   4.552870   4.552541   5.734813   5.936121
    40  N    6.305793   5.322220   5.319209   6.302626   6.443874
    41  C    5.782891   5.051924   5.046799   5.777334   5.702589
    42  C    4.760743   4.003035   3.998704   4.756288   4.560433
    43  H    6.266474   4.955261   4.957037   6.268246   6.600668
    44  H    7.171391   6.185297   6.182308   7.168150   7.381947
    45  H    6.371840   5.823526   5.816979   6.364388   6.222148
    46  H    4.334146   3.842492   3.837022   4.328233   3.863735
    47  O    4.762225   3.680129   3.483133   4.573762   4.593251
    48  O    4.227491   3.263413   4.824736   5.799795   5.591894
    49  N    5.316204   4.308128   5.836068   6.900174   6.848067
    50  O    6.246654   5.098936   5.689002   6.853377   7.034134
                   16         17         18         19         20
    16  C    0.000000
    17  C    1.453719   0.000000
    18  C    2.260138   1.362886   0.000000
    19  C    2.202148   2.262972   1.453758   0.000000
    20  C    3.549635   3.594363   2.510896   1.386724   0.000000
    21  H    2.250304   1.078566   2.203115   3.321289   4.615918
    22  H    3.318592   2.202229   1.078728   2.249692   2.859268
    23  H    4.303671   4.007468   2.713783   2.116877   1.084113
    24  H    6.361537   6.442211   5.256439   4.250739   2.867149
    25  H    8.308300   9.545845   9.345127   7.932990   7.584516
    26  H    7.930998   9.341682   9.531258   8.289348   8.394194
    27  C    5.595693   6.408961   5.765555   4.321526   3.556137
    28  C    6.357148   7.362269   6.890927   5.438963   4.851690
    29  C    2.467248   3.812098   4.717955   4.311339   5.429739
    30  C    5.435367   6.887488   7.344086   6.329885   6.844527
    31  C    1.395117   2.521569   3.601820   3.556119   4.853659
    32  H    6.389973   7.842956   8.371608   7.396543   7.928636
    33  H    5.784076   7.115610   8.024684   7.464353   8.392059
    34  H    4.254317   5.268620   6.448698   6.360487   7.580730
    35  H    2.126484   2.731169   4.022286   4.315119   5.674991
    36  H    7.422683   8.387917   7.844650   6.393212   5.670883
    37  H    7.483783   8.034462   7.115247   5.790218   4.624232
    38  N    3.671839   4.760892   4.744815   3.641206   3.955926
    39  C    3.486224   4.458429   4.668879   3.908987   4.510042
    40  N    4.741906   5.541764   5.649702   4.946126   5.354899
    41  C    5.550097   6.396462   6.280480   5.334539   5.409803
    42  C    4.990184   5.965207   5.770845   4.609043   4.578742
    43  H    2.794799   3.760458   4.247557   3.759465   4.657881
    44  H    5.216510   5.880391   6.083306   5.582280   6.079235
    45  H    6.587932   7.365568   7.192393   6.273758   6.234825
    46  H    5.637473   6.620414   6.293394   4.998547   4.713974
    47  O    3.530368   4.600033   4.578299   3.486282   3.804310
    48  O    4.473162   5.654403   5.843058   4.850545   5.230893
    49  N    4.557315   5.639694   6.058912   5.357583   5.973708
    50  O    3.838546   4.743571   5.242319   4.773783   5.552081
                   21         22         23         24         25
    21  H    0.000000
    22  H    2.706231   0.000000
    23  H    4.916807   2.628805   0.000000
    24  H    7.432720   5.263782   2.637183   0.000000
    25  H   10.525019  10.162339   8.476011   7.439899   0.000000
    26  H   10.163378  10.508311   9.429501   9.094463   2.706190
    27  C    7.483660   6.361245   4.308894   3.318512   4.252498
    28  C    8.415122   7.582386   5.667568   4.613412   2.870294
    29  C    4.254929   5.784034   6.383831   7.930913   7.482435
    30  C    7.587201   8.395621   7.928636   8.391551   4.614073
    31  C    2.871187   4.624065   5.671413   7.589470   8.415554
    32  H    8.480527   9.431872   9.012744   9.426337   4.912204
    33  H    7.442689   9.096055   9.427839  10.508216   7.431195
    34  H    5.284400   7.442316   8.473106  10.163341   9.102438
    35  H    2.650098   4.933385   6.389010   8.483060   9.449547
    36  H    9.449027   8.473132   6.382322   4.917307   2.648839
    37  H    9.103834   7.432567   4.924456   2.706195   5.281350
    38  N    5.662552   5.636159   4.924727   5.644416   5.677404
    39  C    5.195777   5.550777   5.380342   6.512497   6.860830
    40  N    6.215886   6.405768   6.105985   7.013749   7.265809
    41  C    7.197333   6.991619   6.153888   6.520794   6.392313
    42  C    6.880885   6.543879   5.437492   5.624386   5.294933
    43  H    4.366517   5.177999   5.505086   7.003533   7.583902
    44  H    6.416338   6.781170   6.750414   7.811591   8.199265
    45  H    8.143323   7.829871   6.890354   7.038666   6.786652
    46  H    7.598216   7.025354   5.551537   5.243805   4.469324
    47  O    5.498783   5.464074   4.773258   5.460379   5.611580
    48  O    6.434941   6.762811   6.197092   6.724055   5.339163
    49  N    6.230030   6.969356   6.876231   7.745389   6.620968
    50  O    5.241913   6.114241   6.375327   7.601978   7.530563
                   26         27         28         29         30
    26  H    0.000000
    27  C    5.782457   0.000000
    28  C    4.623243   1.385487   0.000000
    29  C    6.360377   6.114484   6.358340   0.000000
    30  C    2.857557   5.428598   4.851920   3.556840   0.000000
    31  C    7.583341   6.359766   6.879768   1.387142   4.854110
    32  H    2.623857   6.381224   5.667882   4.311628   1.084112
    33  H    5.262353   7.929983   7.587665   3.318595   2.867306
    34  H    7.431347   8.308067   8.417528   2.250314   4.624720
    35  H    8.474234   7.426119   7.963260   2.118137   5.673574
    36  H    4.932255   2.116164   1.083929   7.424612   5.672879
    37  H    7.440224   2.250288   2.861438   8.308235   7.579241
    38  N    5.644849   3.685946   4.017521   3.670360   3.956461
    39  C    6.512782   4.949127   5.335959   3.484443   4.512737
    40  N    7.017331   5.583017   5.896948   4.741257   5.359590
    41  C    6.527025   4.904272   5.088503   5.550035   5.413985
    42  C    5.629150   3.607665   3.771767   4.989846   4.580645
    43  H    7.001466   5.608638   6.059427   2.791613   4.660139
    44  H    7.815333   6.573456   6.904805   5.215925   6.084856
    45  H    7.047212   5.559619   5.667868   6.588300   6.239833
    46  H    5.249996   2.924218   2.907303   5.637422   4.714604
    47  O    5.667522   3.523261   3.892084   3.618506   4.026779
    48  O    4.958419   4.409580   4.359477   3.797479   3.441799
    49  N    5.888543   5.735568   5.766860   3.730177   4.082217
    50  O    6.884375   6.034544   6.315572   3.453810   4.801209
                   31         32         33         34         35
    31  C    0.000000
    32  H    5.671872   0.000000
    33  H    4.614962   2.640652   0.000000
    34  H    2.862255   4.927888   2.706220   0.000000
    35  H    1.084030   6.387295   4.919445   2.634686   0.000000
    36  H    7.963229   6.384723   8.481022   9.452794   9.046562
    37  H    8.419122   8.469714  10.162256  10.525001   9.454503
    38  N    3.999912   4.925191   5.634796   5.660849   4.975635
    39  C    3.644274   5.383172   5.548941   5.193484   4.441007
    40  N    4.905669   6.111225   6.406766   6.215186   5.595590
    41  C    5.844820   6.158569   6.994404   7.197711   6.663556
    42  C    5.368395   5.439487   6.545570   6.880836   6.321508
    43  H    2.761860   5.507462   5.173494   4.362231   3.442921
    44  H    5.288576   6.756882   6.782321   6.415634   5.818389
    45  H    6.887865   6.896150   7.834190   8.144491   7.672237
    46  H    6.082377   5.552161   7.027772   7.598660   7.092770
    47  O    3.902852   5.007894   5.672552   5.620207   4.872403
    48  O    4.438550   4.239541   5.012729   5.425801   5.315279
    49  N    4.283544   4.715713   4.825410   4.912102   4.937964
    50  O    3.640009   5.514479   5.198271   4.632978   4.176375
                   36         37         38         39         40
    36  H    0.000000
    37  H    2.632913   0.000000
    38  N    4.993206   5.677172   0.000000
    39  C    6.299586   6.860635   1.320006   0.000000
    40  N    6.735799   7.263582   2.200796   1.363073   0.000000
    41  C    5.788644   6.388292   2.249217   2.222563   1.382998
    42  C    4.555987   5.291799   1.378630   2.168555   2.192601
    43  H    7.077553   7.585062   2.135153   1.077173   2.160477
    44  H    7.729380   8.196937   3.171025   2.120960   1.011681
    45  H    6.220532   6.781040   3.306656   3.246300   2.162186
    46  H    3.572375   4.464880   2.145743   3.186850   3.248548
    47  O    4.861873   5.491688   3.888424   4.758236   6.001521
    48  O    5.230317   6.363475   4.694215   5.535831   6.765230
    49  N    6.634079   7.651771   5.635112   6.250277   7.552865
    50  O    7.244817   7.921960   5.690068   6.146233   7.498516
                   41         42         43         44         45
    41  C    0.000000
    42  C    1.375393   0.000000
    43  H    3.257602   3.214416   0.000000
    44  H    2.140697   3.174865   2.562248   0.000000
    45  H    1.075242   2.242295   4.237151   2.560404   0.000000
    46  H    2.216817   1.075810   4.190960   4.207979   2.773501
    47  O    6.081322   4.871734   4.751834   6.873907   7.084370
    48  O    6.837076   5.631852   5.493000   7.621950   7.821320
    49  N    7.830349   6.727152   5.975268   8.314051   8.855303
    50  O    7.927295   6.902761   5.719738   8.193978   8.986531
                   46         47         48         49         50
    46  H    0.000000
    47  O    4.858663   0.000000
    48  O    5.569298   1.427714   0.000000
    49  N    6.802728   2.375593   1.411063   0.000000
    50  O    7.100864   2.514319   2.203982   1.184276   0.000000
 Stoichiometry    C23H16FeN7O3(2)
 Framework group  C1[X(C23H16FeN7O3)]
 Deg. of freedom   144
 Full point group                 C1      NOp   1
 Largest Abelian subgroup         C1      NOp   1
 Largest concise Abelian subgroup C1      NOp   1
                         Standard orientation:                         
 ---------------------------------------------------------------------
 Center     Atomic      Atomic             Coordinates (Angstroms)
 Number     Number       Type             X           Y           Z
 ---------------------------------------------------------------------
      1         26           0       -0.089284    0.020916   -0.200268
      2          7           0       -1.963925    0.696517   -0.555830
      3          7           0        0.599598    1.923912   -0.147805
      4          7           0        1.750995   -0.639847    0.320371
      5          7           0       -0.811206   -1.865834   -0.090408
      6          6           0        2.122089   -1.949026    0.515615
      7          6           0        3.550652   -2.028155    0.773363
      8          6           0        4.032358   -0.754136    0.725911
      9          6           0       -2.095567   -2.279753   -0.359583
     10          6           0       -2.182506   -3.728322   -0.270345
     11          6           0       -0.936951   -4.175709    0.053484
     12          6           0       -0.082790   -3.003860    0.161565
     13          6           0       -2.335520    2.005559   -0.749603
     14          6           0       -3.748937    2.077575   -1.083757
     15          6           0       -4.218423    0.798581   -1.093165
     16          6           0        1.902065    2.330250    0.034102
     17          6           0        1.997880    3.774474   -0.101310
     18          6           0        0.740201    4.226692   -0.368145
     19          6           0       -0.129410    3.062098   -0.398293
     20          6           0       -1.489844    3.110977   -0.662554
     21          1           0        2.910925    4.341260   -0.009613
     22          1           0        0.413866    5.240724   -0.538143
     23          1           0       -1.928137    4.086113   -0.842300
     24          1           0       -4.285785    2.991017   -1.286141
     25          1           0       -3.079781   -4.301718   -0.441354
     26          1           0       -0.606511   -5.191682    0.202360
     27          6           0       -3.093646   -0.061392   -0.762577
     28          6           0       -3.166912   -1.441640   -0.667068
     29          6           0        2.898974    0.110161    0.439920
     30          6           0        1.269893   -3.051628    0.457136
     31          6           0        2.978626    1.489666    0.318333
     32          1           0        1.705859   -4.028630    0.632342
     33          1           0        4.091575   -2.943601    0.955008
     34          1           0        5.046972   -0.413447    0.859267
     35          1           0        3.954316    1.946666    0.437916
     36          1           0       -4.128482   -1.904908   -0.855932
     37          1           0       -5.216864    0.450106   -1.304896
     38          7           0       -0.493931    0.210364    1.836236
     39          6           0        0.335787    0.743018    2.713883
     40          7           0       -0.218981    0.722876    3.958790
     41          6           0       -1.471163    0.143948    3.860979
     42          6           0       -1.623400   -0.168281    2.530173
     43          1           0        1.312487    1.140024    2.493098
     44          1           0        0.211365    1.070928    4.805644
     45          1           0       -2.117100    0.010364    4.710135
     46          1           0       -2.457167   -0.632786    2.033753
     47          8           0        0.212328   -0.025766   -1.980214
     48          8           0        0.813785   -1.238918   -2.432852
     49          7           0        2.088890   -1.056933   -3.009121
     50          8           0        2.513011    0.048656   -2.991706
 ---------------------------------------------------------------------
 Rotational constants (GHZ):      0.1623603      0.1552902      0.1268425
 General basis read from cards:  (5D, 7F)
 ======================================================================================================
                                       Pseudopotential Parameters
 ======================================================================================================
  Center     Atomic      Valence      Angular      Power
  Number     Number     Electrons     Momentum     of R      Exponent        Coefficient   SO-Coeffient
 ======================================================================================================
    1         26           16
                                      D and up 
                                                     1      392.6149787      -10.00000000    0.00000000
                                                     2       71.1756979      -63.26675180    0.00000000
                                                     2       17.7320281      -10.96133380    0.00000000
                                      S - D
                                                     0      126.0571895        3.00000000    0.00000000
                                                     1      138.1264251       18.17291370    0.00000000
                                                     2       54.2098858      339.12311640    0.00000000
                                                     2        9.2837966      317.10680120    0.00000000
                                                     2        8.6289082     -207.34216490    0.00000000
                                      P - D
                                                     0       83.1759490        5.00000000    0.00000000
                                                     1      106.0559938        5.95359300    0.00000000
                                                     2       42.8284937      294.26655270    0.00000000
                                                     2        8.7701805      154.42446350    0.00000000
                                                     2        8.0397818      -95.31642490    0.00000000
    2          7
                                   No pseudopotential on this center.
    3          7
                                   No pseudopotential on this center.
    4          7
                                   No pseudopotential on this center.
    5          7
                                   No pseudopotential on this center.
    6          6
                                   No pseudopotential on this center.
    7          6
                                   No pseudopotential on this center.
    8          6
                                   No pseudopotential on this center.
    9          6
                                   No pseudopotential on this center.
   10          6
                                   No pseudopotential on this center.
   11          6
                                   No pseudopotential on this center.
   12          6
                                   No pseudopotential on this center.
   13          6
                                   No pseudopotential on this center.
   14          6
                                   No pseudopotential on this center.
   15          6
                                   No pseudopotential on this center.
   16          6
                                   No pseudopotential on this center.
   17          6
                                   No pseudopotential on this center.
   18          6
                                   No pseudopotential on this center.
   19          6
                                   No pseudopotential on this center.
   20          6
                                   No pseudopotential on this center.
   21          1
                                   No pseudopotential on this center.
   22          1
                                   No pseudopotential on this center.
   23          1
                                   No pseudopotential on this center.
   24          1
                                   No pseudopotential on this center.
   25          1
                                   No pseudopotential on this center.
   26          1
                                   No pseudopotential on this center.
   27          6
                                   No pseudopotential on this center.
   28          6
                                   No pseudopotential on this center.
   29          6
                                   No pseudopotential on this center.
   30          6
                                   No pseudopotential on this center.
   31          6
                                   No pseudopotential on this center.
   32          1
                                   No pseudopotential on this center.
   33          1
                                   No pseudopotential on this center.
   34          1
                                   No pseudopotential on this center.
   35          1
                                   No pseudopotential on this center.
   36          1
                                   No pseudopotential on this center.
   37          1
                                   No pseudopotential on this center.
   38          7
                                   No pseudopotential on this center.
   39          6
                                   No pseudopotential on this center.
   40          7
                                   No pseudopotential on this center.
   41          6
                                   No pseudopotential on this center.
   42          6
                                   No pseudopotential on this center.
   43          1
                                   No pseudopotential on this center.
   44          1
                                   No pseudopotential on this center.
   45          1
                                   No pseudopotential on this center.
   46          1
                                   No pseudopotential on this center.
   47          8
                                   No pseudopotential on this center.
   48          8
                                   No pseudopotential on this center.
   49          7
                                   No pseudopotential on this center.
   50          8
                                   No pseudopotential on this center.
 ======================================================================================================
 There are   712 symmetry adapted basis functions of A   symmetry.
 Integral buffers will be    131072 words long.
 Raffenetti 2 integral format.
 Two-electron integral symmetry is turned on.
   712 basis functions,  1236 primitive gaussians,   747 cartesian basis functions
   122 alpha electrons      121 beta electrons
       nuclear repulsion energy      4046.8151530397 Hartrees.
 NAtoms=   50 NActive=   50 NUniq=   50 SFac= 1.00D+00 NAtFMM=   50 NAOKFM=T Big=T
 One-electron integrals computed using PRISM.
   1 Symmetry operations used in ECPInt.
 ECPInt:  NShTT=   28203 NPrTT=  130452 LenC2=   23349 LenP2D=   61549.
 LDataN:  DoStor=T MaxTD1= 4 Len=   56
 NBasis=   712 RedAO= T  NBF=   712
 NBsUse=   712 1.00D-06 NBFU=   712
 Harris functional with IExCor=  402 diagonalized for initial guess.
 ExpMin= 2.20D-02 ExpMax= 8.59D+03 ExpMxC= 1.30D+03 IAcc=3 IRadAn=         0 AccDes= 0.00D+00
 HarFok:  IExCor=  402 AccDes= 0.00D+00 IRadAn=         0 IDoV= 1
 ScaDFX=  1.000000  1.000000  1.000000  1.000000
 FoFCou: FMM=F IPFlag=           0 FMFlag=      100000 FMFlg1=        2001
         NFxFlg=           0 DoJE=T BraDBF=F KetDBF=T FulRan=T
         Omega=  0.000000  0.000000  1.000000  0.000000  0.000000 ICntrl=     500 IOpCl=  0
         NMat0=    1 NMatS0=    1 NMatT0=    0 NMatD0=    1 NMtDS0=    0 NMtDT0=    0
         I1Cent=           4 NGrid=           0.
 Petite list used in FoFCou.
 Initial guess orbital symmetries:
 Alpha Orbitals:
       Occupied  (A) (A) (A) (A) (A) (A) (A) (A) (A) (A) (A) (A)
                 (A) (A) (A) (A) (A) (A) (A) (A) (A) (A) (A) (A)
                 (A) (A) (A) (A) (A) (A) (A) (A) (A) (A) (A) (A)
                 (A) (A) (A) (A) (A) (A) (A) (A) (A) (A) (A) (A)
                 (A) (A) (A) (A) (A) (A) (A) (A) (A) (A) (A) (A)
                 (A) (A) (A) (A) (A) (A) (A) (A) (A) (A) (A) (A)
                 (A) (A) (A) (A) (A) (A) (A) (A) (A) (A) (A) (A)
                 (A) (A) (A) (A) (A) (A) (A) (A) (A) (A) (A) (A)
                 (A) (A) (A) (A) (A) (A) (A) (A) (A) (A) (A) (A)
                 (A) (A) (A) (A) (A) (A) (A) (A) (A) (A) (A) (A)
                 (A) (A)
       Virtual   (A) (A) (A) (A) (A) (A) (A) (A) (A) (A) (A) (A)
                 (A) (A) (A) (A) (A) (A) (A) (A) (A) (A) (A) (A)
                 (A) (A) (A) (A) (A) (A) (A) (A) (A) (A) (A) (A)
                 (A) (A) (A) (A) (A) (A) (A) (A) (A) (A) (A) (A)
                 (A) (A) (A) (A) (A) (A) (A) (A) (A) (A) (A) (A)
                 (A) (A) (A) (A) (A) (A) (A) (A) (A) (A) (A) (A)
                 (A) (A) (A) (A) (A) (A) (A) (A) (A) (A) (A) (A)
                 (A) (A) (A) (A) (A) (A) (A) (A) (A) (A) (A) (A)
                 (A) (A) (A) (A) (A) (A) (A) (A) (A) (A) (A) (A)
                 (A) (A) (A) (A) (A) (A) (A) (A) (A) (A) (A) (A)
                 (A) (A) (A) (A) (A) (A) (A) (A) (A) (A) (A) (A)
                 (A) (A) (A) (A) (A) (A) (A) (A) (A) (A) (A) (A)
                 (A) (A) (A) (A) (A) (A) (A) (A) (A) (A) (A) (A)
                 (A) (A) (A) (A) (A) (A) (A) (A) (A) (A) (A) (A)
                 (A) (A) (A) (A) (A) (A) (A) (A) (A) (A) (A) (A)
                 (A) (A) (A) (A) (A) (A) (A) (A) (A) (A) (A) (A)
                 (A) (A) (A) (A) (A) (A) (A) (A) (A) (A) (A) (A)
                 (A) (A) (A) (A) (A) (A) (A) (A) (A) (A) (A) (A)
                 (A) (A) (A) (A) (A) (A) (A) (A) (A) (A) (A) (A)
                 (A) (A) (A) (A) (A) (A) (A) (A) (A) (A) (A) (A)
                 (A) (A) (A) (A) (A) (A) (A) (A) (A) (A) (A) (A)
                 (A) (A) (A) (A) (A) (A) (A) (A) (A) (A) (A) (A)
                 (A) (A) (A) (A) (A) (A) (A) (A) (A) (A) (A) (A)
                 (A) (A) (A) (A) (A) (A) (A) (A) (A) (A) (A) (A)
                 (A) (A) (A) (A) (A) (A) (A) (A) (A) (A) (A) (A)
                 (A) (A) (A) (A) (A) (A) (A) (A) (A) (A) (A) (A)
                 (A) (A) (A) (A) (A) (A) (A) (A) (A) (A) (A) (A)
                 (A) (A) (A) (A) (A) (A) (A) (A) (A) (A) (A) (A)
                 (A) (A) (A) (A) (A) (A) (A) (A) (A) (A) (A) (A)
                 (A) (A) (A) (A) (A) (A) (A) (A) (A) (A) (A) (A)
                 (A) (A) (A) (A) (A) (A) (A) (A) (A) (A) (A) (A)
                 (A) (A) (A) (A) (A) (A) (A) (A) (A) (A) (A) (A)
                 (A) (A) (A) (A) (A) (A) (A) (A) (A) (A) (A) (A)
                 (A) (A) (A) (A) (A) (A) (A) (A) (A) (A) (A) (A)
                 (A) (A) (A) (A) (A) (A) (A) (A) (A) (A) (A) (A)
                 (A) (A) (A) (A) (A) (A) (A) (A) (A) (A) (A) (A)
                 (A) (A) (A) (A) (A) (A) (A) (A) (A) (A) (A) (A)
                 (A) (A) (A) (A) (A) (A) (A) (A) (A) (A) (A) (A)
                 (A) (A) (A) (A) (A) (A) (A) (A) (A) (A) (A) (A)
                 (A) (A) (A) (A) (A) (A) (A) (A) (A) (A) (A) (A)
                 (A) (A) (A) (A) (A) (A) (A) (A) (A) (A) (A) (A)
                 (A) (A) (A) (A) (A) (A) (A) (A) (A) (A) (A) (A)
                 (A) (A) (A) (A) (A) (A) (A) (A) (A) (A) (A) (A)
                 (A) (A) (A) (A) (A) (A) (A) (A) (A) (A) (A) (A)
                 (A) (A) (A) (A) (A) (A) (A) (A) (A) (A) (A) (A)
                 (A) (A) (A) (A) (A) (A) (A) (A) (A) (A) (A) (A)
                 (A) (A) (A) (A) (A) (A) (A) (A) (A) (A) (A) (A)
                 (A) (A) (A) (A) (A) (A) (A) (A) (A) (A) (A) (A)
                 (A) (A) (A) (A) (A) (A) (A) (A) (A) (A) (A) (A)
                 (A) (A)
 Beta  Orbitals:
       Occupied  (A) (A) (A) (A) (A) (A) (A) (A) (A) (A) (A) (A)
                 (A) (A) (A) (A) (A) (A) (A) (A) (A) (A) (A) (A)
                 (A) (A) (A) (A) (A) (A) (A) (A) (A) (A) (A) (A)
                 (A) (A) (A) (A) (A) (A) (A) (A) (A) (A) (A) (A)
                 (A) (A) (A) (A) (A) (A) (A) (A) (A) (A) (A) (A)
                 (A) (A) (A) (A) (A) (A) (A) (A) (A) (A) (A) (A)
                 (A) (A) (A) (A) (A) (A) (A) (A) (A) (A) (A) (A)
                 (A) (A) (A) (A) (A) (A) (A) (A) (A) (A) (A) (A)
                 (A) (A) (A) (A) (A) (A) (A) (A) (A) (A) (A) (A)
                 (A) (A) (A) (A) (A) (A) (A) (A) (A) (A) (A) (A)
                 (A)
       Virtual   (A) (A) (A) (A) (A) (A) (A) (A) (A) (A) (A) (A)
                 (A) (A) (A) (A) (A) (A) (A) (A) (A) (A) (A) (A)
                 (A) (A) (A) (A) (A) (A) (A) (A) (A) (A) (A) (A)
                 (A) (A) (A) (A) (A) (A) (A) (A) (A) (A) (A) (A)
                 (A) (A) (A) (A) (A) (A) (A) (A) (A) (A) (A) (A)
                 (A) (A) (A) (A) (A) (A) (A) (A) (A) (A) (A) (A)
                 (A) (A) (A) (A) (A) (A) (A) (A) (A) (A) (A) (A)
                 (A) (A) (A) (A) (A) (A) (A) (A) (A) (A) (A) (A)
                 (A) (A) (A) (A) (A) (A) (A) (A) (A) (A) (A) (A)
                 (A) (A) (A) (A) (A) (A) (A) (A) (A) (A) (A) (A)
                 (A) (A) (A) (A) (A) (A) (A) (A) (A) (A) (A) (A)
                 (A) (A) (A) (A) (A) (A) (A) (A) (A) (A) (A) (A)
                 (A) (A) (A) (A) (A) (A) (A) (A) (A) (A) (A) (A)
                 (A) (A) (A) (A) (A) (A) (A) (A) (A) (A) (A) (A)
                 (A) (A) (A) (A) (A) (A) (A) (A) (A) (A) (A) (A)
                 (A) (A) (A) (A) (A) (A) (A) (A) (A) (A) (A) (A)
                 (A) (A) (A) (A) (A) (A) (A) (A) (A) (A) (A) (A)
                 (A) (A) (A) (A) (A) (A) (A) (A) (A) (A) (A) (A)
                 (A) (A) (A) (A) (A) (A) (A) (A) (A) (A) (A) (A)
                 (A) (A) (A) (A) (A) (A) (A) (A) (A) (A) (A) (A)
                 (A) (A) (A) (A) (A) (A) (A) (A) (A) (A) (A) (A)
                 (A) (A) (A) (A) (A) (A) (A) (A) (A) (A) (A) (A)
                 (A) (A) (A) (A) (A) (A) (A) (A) (A) (A) (A) (A)
                 (A) (A) (A) (A) (A) (A) (A) (A) (A) (A) (A) (A)
                 (A) (A) (A) (A) (A) (A) (A) (A) (A) (A) (A) (A)
                 (A) (A) (A) (A) (A) (A) (A) (A) (A) (A) (A) (A)
                 (A) (A) (A) (A) (A) (A) (A) (A) (A) (A) (A) (A)
                 (A) (A) (A) (A) (A) (A) (A) (A) (A) (A) (A) (A)
                 (A) (A) (A) (A) (A) (A) (A) (A) (A) (A) (A) (A)
                 (A) (A) (A) (A) (A) (A) (A) (A) (A) (A) (A) (A)
                 (A) (A) (A) (A) (A) (A) (A) (A) (A) (A) (A) (A)
                 (A) (A) (A) (A) (A) (A) (A) (A) (A) (A) (A) (A)
                 (A) (A) (A) (A) (A) (A) (A) (A) (A) (A) (A) (A)
                 (A) (A) (A) (A) (A) (A) (A) (A) (A) (A) (A) (A)
                 (A) (A) (A) (A) (A) (A) (A) (A) (A) (A) (A) (A)
                 (A) (A) (A) (A) (A) (A) (A) (A) (A) (A) (A) (A)
                 (A) (A) (A) (A) (A) (A) (A) (A) (A) (A) (A) (A)
                 (A) (A) (A) (A) (A) (A) (A) (A) (A) (A) (A) (A)
                 (A) (A) (A) (A) (A) (A) (A) (A) (A) (A) (A) (A)
                 (A) (A) (A) (A) (A) (A) (A) (A) (A) (A) (A) (A)
                 (A) (A) (A) (A) (A) (A) (A) (A) (A) (A) (A) (A)
                 (A) (A) (A) (A) (A) (A) (A) (A) (A) (A) (A) (A)
                 (A) (A) (A) (A) (A) (A) (A) (A) (A) (A) (A) (A)
                 (A) (A) (A) (A) (A) (A) (A) (A) (A) (A) (A) (A)
                 (A) (A) (A) (A) (A) (A) (A) (A) (A) (A) (A) (A)
                 (A) (A) (A) (A) (A) (A) (A) (A) (A) (A) (A) (A)
                 (A) (A) (A) (A) (A) (A) (A) (A) (A) (A) (A) (A)
                 (A) (A) (A) (A) (A) (A) (A) (A) (A) (A) (A) (A)
                 (A) (A) (A) (A) (A) (A) (A) (A) (A) (A) (A) (A)
                 (A) (A) (A)
 The electronic state of the initial guess is 2-A.
 Initial guess <Sx>= 0.0000 <Sy>= 0.0000 <Sz>= 0.5000 <S**2>= 0.7500 S= 0.5000
 Counterpoise: doing MCBS calculation for fragment   1
 Basis read from rwf:  (5D, 7F)
 Pseudo-potential data read from rwf file.
 There are   640 symmetry adapted basis functions of A   symmetry.
 Integral buffers will be    131072 words long.
 Raffenetti 2 integral format.
 Two-electron integral symmetry is turned on.
   640 basis functions,  1108 primitive gaussians,   671 cartesian basis functions
   107 alpha electrons      105 beta electrons
       nuclear repulsion energy      3141.9367373085 Hartrees.
 NAtoms=   50 NActive=   46 NUniq=   46 SFac= 1.00D+00 NAtFMM=   50 NAOKFM=F Big=F
 One-electron integrals computed using PRISM.
   1 Symmetry operations used in ECPInt.
 ECPInt:  NShTT=   23653 NPrTT=  107076 LenC2=   19827 LenP2D=   52689.
 LDataN:  DoStor=T MaxTD1= 4 Len=   56
 NBasis=   640 RedAO= T  NBF=   640
 NBsUse=   640 1.00D-06 NBFU=   640
 Harris functional with IExCor=  402 diagonalized for initial guess.
 ExpMin= 2.20D-02 ExpMax= 6.29D+03 ExpMxC= 9.49D+02 IAcc=3 IRadAn=         0 AccDes= 0.00D+00
 HarFok:  IExCor=  402 AccDes= 0.00D+00 IRadAn=         0 IDoV= 1
 ScaDFX=  1.000000  1.000000  1.000000  1.000000
 FoFCou: FMM=F IPFlag=           0 FMFlag=      100000 FMFlg1=           0
         NFxFlg=           0 DoJE=T BraDBF=F KetDBF=T FulRan=T
         Omega=  0.000000  0.000000  1.000000  0.000000  0.000000 ICntrl=     500 IOpCl=  0
         NMat0=    1 NMatS0=    1 NMatT0=    0 NMatD0=    1 NMtDS0=    0 NMtDT0=    0
         I1Cent=           4 NGrid=           0.
 Petite list used in FoFCou.
 Initial guess orbital symmetries:
 Alpha Orbitals:
       Occupied  (A) (A) (A) (A) (A) (A) (A) (A) (A) (A) (A) (A)
                 (A) (A) (A) (A) (A) (A) (A) (A) (A) (A) (A) (A)
                 (A) (A) (A) (A) (A) (A) (A) (A) (A) (A) (A) (A)
                 (A) (A) (A) (A) (A) (A) (A) (A) (A) (A) (A) (A)
                 (A) (A) (A) (A) (A) (A) (A) (A) (A) (A) (A) (A)
                 (A) (A) (A) (A) (A) (A) (A) (A) (A) (A) (A) (A)
                 (A) (A) (A) (A) (A) (A) (A) (A) (A) (A) (A) (A)
                 (A) (A) (A) (A) (A) (A) (A) (A) (A) (A) (A) (A)
                 (A) (A) (A) (A) (A) (A) (A) (A) (A) (A) (A)
       Virtual   (A) (A) (A) (A) (A) (A) (A) (A) (A) (A) (A) (A)
                 (A) (A) (A) (A) (A) (A) (A) (A) (A) (A) (A) (A)
                 (A) (A) (A) (A) (A) (A) (A) (A) (A) (A) (A) (A)
                 (A) (A) (A) (A) (A) (A) (A) (A) (A) (A) (A) (A)
                 (A) (A) (A) (A) (A) (A) (A) (A) (A) (A) (A) (A)
                 (A) (A) (A) (A) (A) (A) (A) (A) (A) (A) (A) (A)
                 (A) (A) (A) (A) (A) (A) (A) (A) (A) (A) (A) (A)
                 (A) (A) (A) (A) (A) (A) (A) (A) (A) (A) (A) (A)
                 (A) (A) (A) (A) (A) (A) (A) (A) (A) (A) (A) (A)
                 (A) (A) (A) (A) (A) (A) (A) (A) (A) (A) (A) (A)
                 (A) (A) (A) (A) (A) (A) (A) (A) (A) (A) (A) (A)
                 (A) (A) (A) (A) (A) (A) (A) (A) (A) (A) (A) (A)
                 (A) (A) (A) (A) (A) (A) (A) (A) (A) (A) (A) (A)
                 (A) (A) (A) (A) (A) (A) (A) (A) (A) (A) (A) (A)
                 (A) (A) (A) (A) (A) (A) (A) (A) (A) (A) (A) (A)
                 (A) (A) (A) (A) (A) (A) (A) (A) (A) (A) (A) (A)
                 (A) (A) (A) (A) (A) (A) (A) (A) (A) (A) (A) (A)
                 (A) (A) (A) (A) (A) (A) (A) (A) (A) (A) (A) (A)
                 (A) (A) (A) (A) (A) (A) (A) (A) (A) (A) (A) (A)
                 (A) (A) (A) (A) (A) (A) (A) (A) (A) (A) (A) (A)
                 (A) (A) (A) (A) (A) (A) (A) (A) (A) (A) (A) (A)
                 (A) (A) (A) (A) (A) (A) (A) (A) (A) (A) (A) (A)
                 (A) (A) (A) (A) (A) (A) (A) (A) (A) (A) (A) (A)
                 (A) (A) (A) (A) (A) (A) (A) (A) (A) (A) (A) (A)
                 (A) (A) (A) (A) (A) (A) (A) (A) (A) (A) (A) (A)
                 (A) (A) (A) (A) (A) (A) (A) (A) (A) (A) (A) (A)
                 (A) (A) (A) (A) (A) (A) (A) (A) (A) (A) (A) (A)
                 (A) (A) (A) (A) (A) (A) (A) (A) (A) (A) (A) (A)
                 (A) (A) (A) (A) (A) (A) (A) (A) (A) (A) (A) (A)
                 (A) (A) (A) (A) (A) (A) (A) (A) (A) (A) (A) (A)
                 (A) (A) (A) (A) (A) (A) (A) (A) (A) (A) (A) (A)
                 (A) (A) (A) (A) (A) (A) (A) (A) (A) (A) (A) (A)
                 (A) (A) (A) (A) (A) (A) (A) (A) (A) (A) (A) (A)
                 (A) (A) (A) (A) (A) (A) (A) (A) (A) (A) (A) (A)
                 (A) (A) (A) (A) (A) (A) (A) (A) (A) (A) (A) (A)
                 (A) (A) (A) (A) (A) (A) (A) (A) (A) (A) (A) (A)
                 (A) (A) (A) (A) (A) (A) (A) (A) (A) (A) (A) (A)
                 (A) (A) (A) (A) (A) (A) (A) (A) (A) (A) (A) (A)
                 (A) (A) (A) (A) (A) (A) (A) (A) (A) (A) (A) (A)
                 (A) (A) (A) (A) (A) (A) (A) (A) (A) (A) (A) (A)
                 (A) (A) (A) (A) (A) (A) (A) (A) (A) (A) (A) (A)
                 (A) (A) (A) (A) (A) (A) (A) (A) (A) (A) (A) (A)
                 (A) (A) (A) (A) (A) (A) (A) (A) (A) (A) (A) (A)
                 (A) (A) (A) (A) (A) (A) (A) (A) (A) (A) (A) (A)
                 (A) (A) (A) (A) (A)
 Beta  Orbitals:
       Occupied  (A) (A) (A) (A) (A) (A) (A) (A) (A) (A) (A) (A)
                 (A) (A) (A) (A) (A) (A) (A) (A) (A) (A) (A) (A)
                 (A) (A) (A) (A) (A) (A) (A) (A) (A) (A) (A) (A)
                 (A) (A) (A) (A) (A) (A) (A) (A) (A) (A) (A) (A)
                 (A) (A) (A) (A) (A) (A) (A) (A) (A) (A) (A) (A)
                 (A) (A) (A) (A) (A) (A) (A) (A) (A) (A) (A) (A)
                 (A) (A) (A) (A) (A) (A) (A) (A) (A) (A) (A) (A)
                 (A) (A) (A) (A) (A) (A) (A) (A) (A) (A) (A) (A)
                 (A) (A) (A) (A) (A) (A) (A) (A) (A)
       Virtual   (A) (A) (A) (A) (A) (A) (A) (A) (A) (A) (A) (A)
                 (A) (A) (A) (A) (A) (A) (A) (A) (A) (A) (A) (A)
                 (A) (A) (A) (A) (A) (A) (A) (A) (A) (A) (A) (A)
                 (A) (A) (A) (A) (A) (A) (A) (A) (A) (A) (A) (A)
                 (A) (A) (A) (A) (A) (A) (A) (A) (A) (A) (A) (A)
                 (A) (A) (A) (A) (A) (A) (A) (A) (A) (A) (A) (A)
                 (A) (A) (A) (A) (A) (A) (A) (A) (A) (A) (A) (A)
                 (A) (A) (A) (A) (A) (A) (A) (A) (A) (A) (A) (A)
                 (A) (A) (A) (A) (A) (A) (A) (A) (A) (A) (A) (A)
                 (A) (A) (A) (A) (A) (A) (A) (A) (A) (A) (A) (A)
                 (A) (A) (A) (A) (A) (A) (A) (A) (A) (A) (A) (A)
                 (A) (A) (A) (A) (A) (A) (A) (A) (A) (A) (A) (A)
                 (A) (A) (A) (A) (A) (A) (A) (A) (A) (A) (A) (A)
                 (A) (A) (A) (A) (A) (A) (A) (A) (A) (A) (A) (A)
                 (A) (A) (A) (A) (A) (A) (A) (A) (A) (A) (A) (A)
                 (A) (A) (A) (A) (A) (A) (A) (A) (A) (A) (A) (A)
                 (A) (A) (A) (A) (A) (A) (A) (A) (A) (A) (A) (A)
                 (A) (A) (A) (A) (A) (A) (A) (A) (A) (A) (A) (A)
                 (A) (A) (A) (A) (A) (A) (A) (A) (A) (A) (A) (A)
                 (A) (A) (A) (A) (A) (A) (A) (A) (A) (A) (A) (A)
                 (A) (A) (A) (A) (A) (A) (A) (A) (A) (A) (A) (A)
                 (A) (A) (A) (A) (A) (A) (A) (A) (A) (A) (A) (A)
                 (A) (A) (A) (A) (A) (A) (A) (A) (A) (A) (A) (A)
                 (A) (A) (A) (A) (A) (A) (A) (A) (A) (A) (A) (A)
                 (A) (A) (A) (A) (A) (A) (A) (A) (A) (A) (A) (A)
                 (A) (A) (A) (A) (A) (A) (A) (A) (A) (A) (A) (A)
                 (A) (A) (A) (A) (A) (A) (A) (A) (A) (A) (A) (A)
                 (A) (A) (A) (A) (A) (A) (A) (A) (A) (A) (A) (A)
                 (A) (A) (A) (A) (A) (A) (A) (A) (A) (A) (A) (A)
                 (A) (A) (A) (A) (A) (A) (A) (A) (A) (A) (A) (A)
                 (A) (A) (A) (A) (A) (A) (A) (A) (A) (A) (A) (A)
                 (A) (A) (A) (A) (A) (A) (A) (A) (A) (A) (A) (A)
                 (A) (A) (A) (A) (A) (A) (A) (A) (A) (A) (A) (A)
                 (A) (A) (A) (A) (A) (A) (A) (A) (A) (A) (A) (A)
                 (A) (A) (A) (A) (A) (A) (A) (A) (A) (A) (A) (A)
                 (A) (A) (A) (A) (A) (A) (A) (A) (A) (A) (A) (A)
                 (A) (A) (A) (A) (A) (A) (A) (A) (A) (A) (A) (A)
                 (A) (A) (A) (A) (A) (A) (A) (A) (A) (A) (A) (A)
                 (A) (A) (A) (A) (A) (A) (A) (A) (A) (A) (A) (A)
                 (A) (A) (A) (A) (A) (A) (A) (A) (A) (A) (A) (A)
                 (A) (A) (A) (A) (A) (A) (A) (A) (A) (A) (A) (A)
                 (A) (A) (A) (A) (A) (A) (A) (A) (A) (A) (A) (A)
                 (A) (A) (A) (A) (A) (A) (A) (A) (A) (A) (A) (A)
                 (A) (A) (A) (A) (A) (A) (A) (A) (A) (A) (A) (A)
                 (A) (A) (A) (A) (A) (A) (A)
 The electronic state of the initial guess is 3-A.
 Initial guess <Sx>= 0.0000 <Sy>= 0.0000 <Sz>= 1.0000 <S**2>= 2.0000 S= 1.0000
 Counterpoise: doing MCBS calculation for fragment   2
 Basis read from rwf:  (5D, 7F)
 Pseudo-potential data read from rwf file.
 There are    36 symmetry adapted basis functions of A   symmetry.
 Integral buffers will be    131072 words long.
 Raffenetti 2 integral format.
 Two-electron integral symmetry is turned on.
    36 basis functions,    64 primitive gaussians,    38 cartesian basis functions
     9 alpha electrons        7 beta electrons
       nuclear repulsion energy        23.7213696861 Hartrees.
 NAtoms=   50 NActive=    2 NUniq=    2 SFac= 1.00D+00 NAtFMM=   50 NAOKFM=F Big=F
 One-electron integrals computed using PRISM.
   1 Symmetry operations used in ECPInt.
 ECPInt:  NShTT=      55 NPrTT=     336 LenC2=      56 LenP2D=     292.
 LDataN:  DoStor=T MaxTD1= 4 Len=   56
 NBasis=    36 RedAO= T  NBF=    36
 NBsUse=    36 1.00D-06 NBFU=    36
 Harris functional with IExCor=  402 diagonalized for initial guess.
 ExpMin= 2.56D-01 ExpMax= 8.59D+03 ExpMxC= 1.30D+03 IAcc=1 IRadAn=         1 AccDes= 0.00D+00
 HarFok:  IExCor=  402 AccDes= 0.00D+00 IRadAn=         1 IDoV= 1
 ScaDFX=  1.000000  1.000000  1.000000  1.000000
 FoFCou: FMM=F IPFlag=           0 FMFlag=      100000 FMFlg1=           0
         NFxFlg=           0 DoJE=T BraDBF=F KetDBF=T FulRan=T
         Omega=  0.000000  0.000000  1.000000  0.000000  0.000000 ICntrl=     500 IOpCl=  0
         NMat0=    1 NMatS0=    1 NMatT0=    0 NMatD0=    1 NMtDS0=    0 NMtDT0=    0
         I1Cent=           4 NGrid=           0.
 Petite list used in FoFCou.
 Initial guess orbital symmetries:
 Alpha Orbitals:
       Occupied  (A) (A) (A) (A) (A) (A) (A) (A) (A)
       Virtual   (A) (A) (A) (A) (A) (A) (A) (A) (A) (A) (A) (A)
                 (A) (A) (A) (A) (A) (A) (A) (A) (A) (A) (A) (A)
                 (A) (A) (A)
 Beta  Orbitals:
       Occupied  (A) (A) (A) (A) (A) (A) (A)
       Virtual   (A) (A) (A) (A) (A) (A) (A) (A) (A) (A) (A) (A)
                 (A) (A) (A) (A) (A) (A) (A) (A) (A) (A) (A) (A)
                 (A) (A) (A) (A) (A)
 The electronic state of the initial guess is 3-A.
 Initial guess <Sx>= 0.0000 <Sy>= 0.0000 <Sz>= 1.0000 <S**2>= 2.0000 S= 1.0000
 Counterpoise: doing MCBS calculation for fragment   3
 Basis read from rwf:  (5D, 7F)
 Pseudo-potential data read from rwf file.
 There are    36 symmetry adapted basis functions of A   symmetry.
 Integral buffers will be    131072 words long.
 Raffenetti 2 integral format.
 Two-electron integral symmetry is turned on.
    36 basis functions,    64 primitive gaussians,    38 cartesian basis functions
     8 alpha electrons        7 beta electrons
       nuclear repulsion energy        25.0228106712 Hartrees.
 NAtoms=   50 NActive=    2 NUniq=    2 SFac= 1.00D+00 NAtFMM=   50 NAOKFM=F Big=F
 One-electron integrals computed using PRISM.
   1 Symmetry operations used in ECPInt.
 ECPInt:  NShTT=      55 NPrTT=     336 LenC2=      56 LenP2D=     301.
 LDataN:  DoStor=T MaxTD1= 4 Len=   56
 NBasis=    36 RedAO= T  NBF=    36
 NBsUse=    36 1.00D-06 NBFU=    36
 Harris functional with IExCor=  402 diagonalized for initial guess.
 ExpMin= 2.01D-01 ExpMax= 8.59D+03 ExpMxC= 1.30D+03 IAcc=1 IRadAn=         1 AccDes= 0.00D+00
 HarFok:  IExCor=  402 AccDes= 0.00D+00 IRadAn=         1 IDoV= 1
 ScaDFX=  1.000000  1.000000  1.000000  1.000000
 FoFCou: FMM=F IPFlag=           0 FMFlag=      100000 FMFlg1=           0
         NFxFlg=           0 DoJE=T BraDBF=F KetDBF=T FulRan=T
         Omega=  0.000000  0.000000  1.000000  0.000000  0.000000 ICntrl=     500 IOpCl=  0
         NMat0=    1 NMatS0=    1 NMatT0=    0 NMatD0=    1 NMtDS0=    0 NMtDT0=    0
         I1Cent=           4 NGrid=           0.
 Petite list used in FoFCou.
 Initial guess orbital symmetries:
 Alpha Orbitals:
       Occupied  (A) (A) (A) (A) (A) (A) (A) (A)
       Virtual   (A) (A) (A) (A) (A) (A) (A) (A) (A) (A) (A) (A)
                 (A) (A) (A) (A) (A) (A) (A) (A) (A) (A) (A) (A)
                 (A) (A) (A) (A)
 Beta  Orbitals:
       Occupied  (A) (A) (A) (A) (A) (A) (A)
       Virtual   (A) (A) (A) (A) (A) (A) (A) (A) (A) (A) (A) (A)
                 (A) (A) (A) (A) (A) (A) (A) (A) (A) (A) (A) (A)
                 (A) (A) (A) (A) (A)
 The electronic state of the initial guess is 2-A.
 Initial guess <Sx>= 0.0000 <Sy>= 0.0000 <Sz>= 0.5000 <S**2>= 0.7500 S= 0.5000
 FinFrg:  NACore=    37 NAVal2=    82 NAVal1=     3 NBCore=    37 NBVal2=    82 NBVal1=     2

 This type of calculation cannot be archived.


 IN THE LONG RUN, DIGGING FOR TRUTH HAS ALWAYS PROVED NOT ONLY 
 MORE INTERESTING BUT MORE PROFITABLE THAN DIGGING FOR GOLD.

                             -- GEORGE R. HARRISON
 Job cpu time:  0 days  0 hours  2 minutes 39.6 seconds.
 File lengths (MBytes):  RWF=     97 Int=      0 D2E=      0 Chk=     56 Scr=      1
 Normal termination of Gaussian 09 at Mon Sep 10 16:40:32 2012.
