 Entering Gaussian System, Link 0=g09
 Initial command:
 /share/apps/g09/l1.exe /state/partition1/Gau-14090.inp -scrdir=/state/partition1/
 Entering Link 1 = /share/apps/g09/l1.exe PID=     14091.
  
 Copyright (c) 1988,1990,1992,1993,1995,1998,2003,2009,2010,
            Gaussian, Inc.  All Rights Reserved.
  
 This is part of the Gaussian(R) 09 program.  It is based on
 the Gaussian(R) 03 system (copyright 2003, Gaussian, Inc.),
 the Gaussian(R) 98 system (copyright 1998, Gaussian, Inc.),
 the Gaussian(R) 94 system (copyright 1995, Gaussian, Inc.),
 the Gaussian 92(TM) system (copyright 1992, Gaussian, Inc.),
 the Gaussian 90(TM) system (copyright 1990, Gaussian, Inc.),
 the Gaussian 88(TM) system (copyright 1988, Gaussian, Inc.),
 the Gaussian 86(TM) system (copyright 1986, Carnegie Mellon
 University), and the Gaussian 82(TM) system (copyright 1983,
 Carnegie Mellon University). Gaussian is a federally registered
 trademark of Gaussian, Inc.
  
 This software contains proprietary and confidential information,
 including trade secrets, belonging to Gaussian, Inc.
  
 This software is provided under written license and may be
 used, copied, transmitted, or stored only in accord with that
 written license.
  
 The following legend is applicable only to US Government
 contracts under FAR:
  
                    RESTRICTED RIGHTS LEGEND
  
 Use, reproduction and disclosure by the US Government is
 subject to restrictions as set forth in subparagraphs (a)
 and (c) of the Commercial Computer Software - Restricted
 Rights clause in FAR 52.227-19.
  
 Gaussian, Inc.
 340 Quinnipiac St., Bldg. 40, Wallingford CT 06492
  
  
 ---------------------------------------------------------------
 Warning -- This program may not be used in any manner that
 competes with the business of Gaussian, Inc. or will provide
 assistance to any competitor of Gaussian, Inc.  The licensee
 of this program is prohibited from giving any competitor of
 Gaussian, Inc. access to this program.  By using this program,
 the user acknowledges that Gaussian, Inc. is engaged in the
 business of creating and licensing software in the field of
 computational chemistry and represents and warrants to the
 licensee that it is not a competitor of Gaussian, Inc. and that
 it will not use this program in any manner prohibited above.
 ---------------------------------------------------------------
  

 Cite this work as:
 Gaussian 09, Revision B.01,
 M. J. Frisch, G. W. Trucks, H. B. Schlegel, G. E. Scuseria, 
 M. A. Robb, J. R. Cheeseman, G. Scalmani, V. Barone, B. Mennucci, 
 G. A. Petersson, H. Nakatsuji, M. Caricato, X. Li, H. P. Hratchian, 
 A. F. Izmaylov, J. Bloino, G. Zheng, J. L. Sonnenberg, M. Hada, 
 M. Ehara, K. Toyota, R. Fukuda, J. Hasegawa, M. Ishida, T. Nakajima, 
 Y. Honda, O. Kitao, H. Nakai, T. Vreven, J. A. Montgomery, Jr., 
 J. E. Peralta, F. Ogliaro, M. Bearpark, J. J. Heyd, E. Brothers, 
 K. N. Kudin, V. N. Staroverov, T. Keith, R. Kobayashi, J. Normand, 
 K. Raghavachari, A. Rendell, J. C. Burant, S. S. Iyengar, J. Tomasi, 
 M. Cossi, N. Rega, J. M. Millam, M. Klene, J. E. Knox, J. B. Cross, 
 V. Bakken, C. Adamo, J. Jaramillo, R. Gomperts, R. E. Stratmann, 
 O. Yazyev, A. J. Austin, R. Cammi, C. Pomelli, J. W. Ochterski, 
 R. L. Martin, K. Morokuma, V. G. Zakrzewski, G. A. Voth, 
 P. Salvador, J. J. Dannenberg, S. Dapprich, A. D. Daniels, 
 O. Farkas, J. B. Foresman, J. V. Ortiz, J. Cioslowski, 
 and D. J. Fox, Gaussian, Inc., Wallingford CT, 2010.
 
 ******************************************
 Gaussian 09:  EM64L-G09RevB.01 12-Aug-2010
                10-Sep-2012 
 ******************************************
 %chk=NOD_iso_150_250_s2.chk
 %mem=2500MB
 %nprocshared=8
 Will use up to    8 processors via shared memory.
 ----------------------------------------------------------------------
 # ub3lyp chkbasis scf=(qc,maxcycle=999) guess=read geom=allcheckpoint 
 opt=(modredundant,maxcycle=200)
 ----------------------------------------------------------------------
 1/6=200,14=-1,18=120,19=15,26=3,29=7,38=1/1,3;
 2/9=110,12=2,40=1/2;
 3/5=7,6=2,11=2,14=-4,16=1,25=1,30=1,67=1,71=1,74=-5,116=2/1,2,3;
 4/5=1/1;
 5/5=2,7=999,8=3,38=6/8;
 6/7=2,8=2,9=2,10=2,28=1/1;
 7//1,2,3,16;
 1/6=200,14=-1,18=20,19=15/3(2);
 2/9=110/2;
 99//99;
 2/9=110/2;
 3/5=7,6=1,11=2,14=-2,16=1,25=1,30=1,71=1,74=-5,82=7,116=2/1,2,3;
 4/5=5,16=3/1;
 5/5=2,7=999,8=3,38=5/8;
 7//1,2,3,16;
 1/6=200,14=-1,18=20,19=15/3(-5);
 2/9=110/2;
 6/7=2,8=2,9=2,10=2,19=2,28=1/1;
 99/9=1/99;
 --------------------------------------------------------------------
 NOD_iso_150_250_s1 FePImOONO wavefunction from broken-symmetry guess
 --------------------------------------------------------------------
 Z-Matrix taken from the checkpoint file:
 NOD_iso_150_250_s2.chk
 Charge =  0 Multiplicity = 2
 Fe,0,0.,0.,0.
 N,0,0.,0.,2.02414
 N,0,2.02449,0.,-0.01205
 N,0,0.00658,-0.16896,-2.01636
 N,0,-2.01621,-0.16607,0.01956
 C,0,-1.09755,-0.24979,-2.83131
 C,0,-0.68745,-0.25238,-4.22605
 C,0,0.67272,-0.16755,-4.23861
 C,0,-2.84276,-0.10954,1.11819
 C,0,-4.23416,-0.16065,0.69954
 C,0,-4.23057,-0.2469,-0.66023
 C,0,-2.83809,-0.24676,-1.07916
 C,0,1.10387,0.0793,2.83925
 C,0,0.69024,0.15997,4.23101
 C,0,-0.67194,0.1334,4.24058
 C,0,2.84779,0.03277,-1.11465
 C,0,4.23692,0.13102,-0.69756
 C,0,4.23524,0.1589,0.66504
 C,0,2.84636,0.07912,1.08701
 C,0,2.43041,0.10104,2.4097
 H,0,5.07875,0.17916,-1.3701
 H,0,5.07696,0.23322,1.33559
 H,0,3.19777,0.16689,3.17267
 H,0,1.36593,0.23318,5.06864
 H,0,-5.07891,-0.12776,1.3692
 H,0,-5.07327,-0.29965,-1.33152
 C,0,-1.09726,0.03427,2.85377
 C,0,-2.41957,-0.02308,2.44416
 C,0,1.10034,-0.11396,-2.85022
 C,0,-2.42291,-0.30088,-2.3998
 C,0,2.42344,-0.02981,-2.44219
 H,0,-3.19292,-0.3626,-3.16044
 H,0,-1.36418,-0.3044,-5.06448
 H,0,1.33661,-0.13467,-5.088
 H,0,3.18352,0.0057,-3.21429
 H,0,-3.18255,0.01227,3.21326
 H,0,-1.3397,0.18074,5.08616
 N,0,0.09364,-2.08129,0.08026
 C,0,0.89497,-2.81989,-0.66456
 N,0,0.72124,-4.14073,-0.37617
 C,0,-0.24571,-4.24135,0.60748
 C,0,-0.62388,-2.94694,0.87803
 H,0,1.59041,-2.44709,-1.39783
 H,0,1.21422,-4.91182,-0.80732
 H,0,-0.56666,-5.1845,1.01196
 H,0,-1.35289,-2.58666,1.58238
 O,0,0.01273,1.80579,0.01775
 O,0,-0.93994,2.39916,-0.86469
 N,0,-0.35599,3.18135,-1.88365
 O,0,0.82786,3.19836,-1.91049
 Recover connectivity data from disk.
 The following ModRedundant input section has been read:
 B      47      48 1.5000 F                                                    
 B      47      49 2.5000 F                                                    
 Iteration  1 RMS(Cart)=  0.01941711 RMS(Int)=  0.00340666
 Iteration  2 RMS(Cart)=  0.00348277 RMS(Int)=  0.00298225
 Iteration  3 RMS(Cart)=  0.00002272 RMS(Int)=  0.00298223
 Iteration  4 RMS(Cart)=  0.00000058 RMS(Int)=  0.00298223
 Iteration  1 RMS(Cart)=  0.00306618 RMS(Int)=  0.00112759
 Iteration  2 RMS(Cart)=  0.00116309 RMS(Int)=  0.00125469
 Iteration  3 RMS(Cart)=  0.00044441 RMS(Int)=  0.00135879
 Iteration  4 RMS(Cart)=  0.00017024 RMS(Int)=  0.00140474
 Iteration  5 RMS(Cart)=  0.00006528 RMS(Int)=  0.00142314
 Iteration  6 RMS(Cart)=  0.00002504 RMS(Int)=  0.00143031
 Iteration  7 RMS(Cart)=  0.00000961 RMS(Int)=  0.00143307
 Iteration  8 RMS(Cart)=  0.00000369 RMS(Int)=  0.00143414
 Iteration  9 RMS(Cart)=  0.00000141 RMS(Int)=  0.00143455
 Iteration 10 RMS(Cart)=  0.00000054 RMS(Int)=  0.00143470

 GradGradGradGradGradGradGradGradGradGradGradGradGradGradGradGradGradGrad
 Berny optimization.
 Initialization pass.
                           ----------------------------
                           !    Initial Parameters    !
                           ! (Angstroms and Degrees)  !
 --------------------------                            --------------------------
 ! Name  Definition              Value          Derivative Info.                !
 --------------------------------------------------------------------------------
 ! R1    R(1,2)                  2.0241         estimate D2E/DX2                !
 ! R2    R(1,3)                  2.0245         estimate D2E/DX2                !
 ! R3    R(1,4)                  2.0234         estimate D2E/DX2                !
 ! R4    R(1,5)                  2.0231         estimate D2E/DX2                !
 ! R5    R(1,38)                 2.0849         estimate D2E/DX2                !
 ! R6    R(1,47)                 1.8059         estimate D2E/DX2                !
 ! R7    R(2,13)                 1.3745         estimate D2E/DX2                !
 ! R8    R(2,27)                 1.376          estimate D2E/DX2                !
 ! R9    R(3,16)                 1.3765         estimate D2E/DX2                !
 ! R10   R(3,19)                 1.3747         estimate D2E/DX2                !
 ! R11   R(4,6)                  1.3747         estimate D2E/DX2                !
 ! R12   R(4,29)                 1.3765         estimate D2E/DX2                !
 ! R13   R(5,9)                  1.376          estimate D2E/DX2                !
 ! R14   R(5,12)                 1.3745         estimate D2E/DX2                !
 ! R15   R(6,7)                  1.4538         estimate D2E/DX2                !
 ! R16   R(6,30)                 1.3948         estimate D2E/DX2                !
 ! R17   R(7,8)                  1.3629         estimate D2E/DX2                !
 ! R18   R(7,33)                 1.0787         estimate D2E/DX2                !
 ! R19   R(8,29)                 1.4537         estimate D2E/DX2                !
 ! R20   R(8,34)                 1.0786         estimate D2E/DX2                !
 ! R21   R(9,10)                 1.4539         estimate D2E/DX2                !
 ! R22   R(9,28)                 1.3945         estimate D2E/DX2                !
 ! R23   R(10,11)                1.3625         estimate D2E/DX2                !
 ! R24   R(10,25)                1.0785         estimate D2E/DX2                !
 ! R25   R(11,12)                1.4541         estimate D2E/DX2                !
 ! R26   R(11,26)                1.0787         estimate D2E/DX2                !
 ! R27   R(12,30)                1.3854         estimate D2E/DX2                !
 ! R28   R(13,14)                1.4542         estimate D2E/DX2                !
 ! R29   R(13,20)                1.3945         estimate D2E/DX2                !
 ! R30   R(14,15)                1.3625         estimate D2E/DX2                !
 ! R31   R(14,24)                1.0787         estimate D2E/DX2                !
 ! R32   R(15,27)                1.4539         estimate D2E/DX2                !
 ! R33   R(15,37)                1.0785         estimate D2E/DX2                !
 ! R34   R(16,17)                1.4537         estimate D2E/DX2                !
 ! R35   R(16,31)                1.3951         estimate D2E/DX2                !
 ! R36   R(17,18)                1.3629         estimate D2E/DX2                !
 ! R37   R(17,21)                1.0786         estimate D2E/DX2                !
 ! R38   R(18,19)                1.4538         estimate D2E/DX2                !
 ! R39   R(18,22)                1.0787         estimate D2E/DX2                !
 ! R40   R(19,20)                1.3867         estimate D2E/DX2                !
 ! R41   R(20,23)                1.0841         estimate D2E/DX2                !
 ! R42   R(27,28)                1.3855         estimate D2E/DX2                !
 ! R43   R(28,36)                1.0839         estimate D2E/DX2                !
 ! R44   R(29,31)                1.3871         estimate D2E/DX2                !
 ! R45   R(30,32)                1.0841         estimate D2E/DX2                !
 ! R46   R(31,35)                1.084          estimate D2E/DX2                !
 ! R47   R(38,39)                1.32           estimate D2E/DX2                !
 ! R48   R(38,42)                1.3786         estimate D2E/DX2                !
 ! R49   R(39,40)                1.3631         estimate D2E/DX2                !
 ! R50   R(39,43)                1.0772         estimate D2E/DX2                !
 ! R51   R(40,41)                1.383          estimate D2E/DX2                !
 ! R52   R(40,44)                1.0117         estimate D2E/DX2                !
 ! R53   R(41,42)                1.3754         estimate D2E/DX2                !
 ! R54   R(41,45)                1.0752         estimate D2E/DX2                !
 ! R55   R(42,46)                1.0758         estimate D2E/DX2                !
 ! R56   R(47,48)                1.5            Frozen                          !
 ! R57   R(47,49)                2.5            Frozen                          !
 ! R58   R(48,49)                1.4298         estimate D2E/DX2                !
 ! R59   R(49,50)                1.1844         estimate D2E/DX2                !
 ! A1    A(2,1,3)               90.341          estimate D2E/DX2                !
 ! A2    A(2,1,5)               89.446          estimate D2E/DX2                !
 ! A3    A(2,1,38)              87.7938         estimate D2E/DX2                !
 ! A4    A(2,1,47)              89.4368         estimate D2E/DX2                !
 ! A5    A(3,1,4)               89.4738         estimate D2E/DX2                !
 ! A6    A(3,1,38)              87.439          estimate D2E/DX2                !
 ! A7    A(3,1,47)              89.5995         estimate D2E/DX2                !
 ! A8    A(4,1,5)               90.345          estimate D2E/DX2                !
 ! A9    A(4,1,38)              87.4127         estimate D2E/DX2                !
 ! A10   A(4,1,47)              95.3516         estimate D2E/DX2                !
 ! A11   A(5,1,38)              87.8477         estimate D2E/DX2                !
 ! A12   A(5,1,47)              95.1066         estimate D2E/DX2                !
 ! A13   A(1,2,13)             126.3721         estimate D2E/DX2                !
 ! A14   A(1,2,27)             127.0792         estimate D2E/DX2                !
 ! A15   A(13,2,27)            106.3455         estimate D2E/DX2                !
 ! A16   A(1,3,16)             127.0771         estimate D2E/DX2                !
 ! A17   A(1,3,19)             126.3778         estimate D2E/DX2                !
 ! A18   A(16,3,19)            106.3481         estimate D2E/DX2                !
 ! A19   A(1,4,6)              126.3736         estimate D2E/DX2                !
 ! A20   A(1,4,29)             127.0798         estimate D2E/DX2                !
 ! A21   A(6,4,29)             106.3461         estimate D2E/DX2                !
 ! A22   A(1,5,9)              127.0839         estimate D2E/DX2                !
 ! A23   A(1,5,12)             126.3704         estimate D2E/DX2                !
 ! A24   A(9,5,12)             106.3475         estimate D2E/DX2                !
 ! A25   A(4,6,7)              110.0159         estimate D2E/DX2                !
 ! A26   A(4,6,30)             125.5885         estimate D2E/DX2                !
 ! A27   A(7,6,30)             124.3883         estimate D2E/DX2                !
 ! A28   A(6,7,8)              106.8737         estimate D2E/DX2                !
 ! A29   A(6,7,33)             124.6663         estimate D2E/DX2                !
 ! A30   A(8,7,33)             128.4581         estimate D2E/DX2                !
 ! A31   A(7,8,29)             106.6821         estimate D2E/DX2                !
 ! A32   A(7,8,34)             128.5699         estimate D2E/DX2                !
 ! A33   A(29,8,34)            124.7458         estimate D2E/DX2                !
 ! A34   A(5,9,10)             110.0912         estimate D2E/DX2                !
 ! A35   A(5,9,28)             125.41           estimate D2E/DX2                !
 ! A36   A(10,9,28)            124.498          estimate D2E/DX2                !
 ! A37   A(9,10,11)            106.6827         estimate D2E/DX2                !
 ! A38   A(9,10,25)            124.7314         estimate D2E/DX2                !
 ! A39   A(11,10,25)           128.5849         estimate D2E/DX2                !
 ! A40   A(10,11,12)           106.86           estimate D2E/DX2                !
 ! A41   A(10,11,26)           128.4704         estimate D2E/DX2                !
 ! A42   A(12,11,26)           124.6682         estimate D2E/DX2                !
 ! A43   A(5,12,11)            110.018          estimate D2E/DX2                !
 ! A44   A(5,12,30)            125.8096         estimate D2E/DX2                !
 ! A45   A(11,12,30)           124.166          estimate D2E/DX2                !
 ! A46   A(2,13,14)            110.0193         estimate D2E/DX2                !
 ! A47   A(2,13,20)            125.6049         estimate D2E/DX2                !
 ! A48   A(14,13,20)           124.3691         estimate D2E/DX2                !
 ! A49   A(13,14,15)           106.8594         estimate D2E/DX2                !
 ! A50   A(13,14,24)           124.6664         estimate D2E/DX2                !
 ! A51   A(15,14,24)           128.4727         estimate D2E/DX2                !
 ! A52   A(14,15,27)           106.6841         estimate D2E/DX2                !
 ! A53   A(14,15,37)           128.5852         estimate D2E/DX2                !
 ! A54   A(27,15,37)           124.7296         estimate D2E/DX2                !
 ! A55   A(3,16,17)            110.0802         estimate D2E/DX2                !
 ! A56   A(3,16,31)            125.3973         estimate D2E/DX2                !
 ! A57   A(17,16,31)           124.5204         estimate D2E/DX2                !
 ! A58   A(16,17,18)           106.6818         estimate D2E/DX2                !
 ! A59   A(16,17,21)           124.7462         estimate D2E/DX2                !
 ! A60   A(18,17,21)           128.5698         estimate D2E/DX2                !
 ! A61   A(17,18,19)           106.8733         estimate D2E/DX2                !
 ! A62   A(17,18,22)           128.4571         estimate D2E/DX2                !
 ! A63   A(19,18,22)           124.6678         estimate D2E/DX2                !
 ! A64   A(3,19,18)            110.016          estimate D2E/DX2                !
 ! A65   A(3,19,20)            125.7449         estimate D2E/DX2                !
 ! A66   A(18,19,20)           124.2328         estimate D2E/DX2                !
 ! A67   A(13,20,19)           125.3722         estimate D2E/DX2                !
 ! A68   A(13,20,23)           117.2248         estimate D2E/DX2                !
 ! A69   A(19,20,23)           117.3822         estimate D2E/DX2                !
 ! A70   A(2,27,15)            110.0909         estimate D2E/DX2                !
 ! A71   A(2,27,28)            125.5753         estimate D2E/DX2                !
 ! A72   A(15,27,28)           124.3331         estimate D2E/DX2                !
 ! A73   A(9,28,27)            124.9803         estimate D2E/DX2                !
 ! A74   A(9,28,36)            117.5855         estimate D2E/DX2                !
 ! A75   A(27,28,36)           117.4311         estimate D2E/DX2                !
 ! A76   A(4,29,8)             110.0814         estimate D2E/DX2                !
 ! A77   A(4,29,31)            125.6023         estimate D2E/DX2                !
 ! A78   A(8,29,31)            124.3146         estimate D2E/DX2                !
 ! A79   A(6,30,12)            125.3271         estimate D2E/DX2                !
 ! A80   A(6,30,32)            117.3832         estimate D2E/DX2                !
 ! A81   A(12,30,32)           117.2704         estimate D2E/DX2                !
 ! A82   A(16,31,29)           124.9422         estimate D2E/DX2                !
 ! A83   A(16,31,35)           117.5815         estimate D2E/DX2                !
 ! A84   A(29,31,35)           117.4689         estimate D2E/DX2                !
 ! A85   A(1,38,39)            124.3403         estimate D2E/DX2                !
 ! A86   A(1,38,42)            128.7341         estimate D2E/DX2                !
 ! A87   A(39,38,42)           106.9255         estimate D2E/DX2                !
 ! A88   A(38,39,40)           110.2094         estimate D2E/DX2                !
 ! A89   A(38,39,43)           125.6186         estimate D2E/DX2                !
 ! A90   A(40,39,43)           124.1721         estimate D2E/DX2                !
 ! A91   A(39,40,41)           108.0649         estimate D2E/DX2                !
 ! A92   A(39,40,44)           125.8947         estimate D2E/DX2                !
 ! A93   A(41,40,44)           126.0404         estimate D2E/DX2                !
 ! A94   A(40,41,42)           105.2883         estimate D2E/DX2                !
 ! A95   A(40,41,45)           122.6881         estimate D2E/DX2                !
 ! A96   A(42,41,45)           132.0236         estimate D2E/DX2                !
 ! A97   A(38,42,41)           109.512          estimate D2E/DX2                !
 ! A98   A(38,42,46)           121.4172         estimate D2E/DX2                !
 ! A99   A(41,42,46)           129.0708         estimate D2E/DX2                !
 ! A100  A(1,47,48)            113.8786         estimate D2E/DX2                !
 ! A101  A(47,48,49)           117.1275         estimate D2E/DX2                !
 ! A102  A(48,49,50)           115.9802         estimate D2E/DX2                !
 ! D1    D(3,1,2,13)             4.109          estimate D2E/DX2                !
 ! D2    D(3,1,2,27)           178.2111         estimate D2E/DX2                !
 ! D3    D(5,1,2,13)           179.4003         estimate D2E/DX2                !
 ! D4    D(5,1,2,27)            -6.4976         estimate D2E/DX2                !
 ! D5    D(38,1,2,13)           91.5329         estimate D2E/DX2                !
 ! D6    D(38,1,2,27)          -94.365          estimate D2E/DX2                !
 ! D7    D(47,1,2,13)          -85.4871         estimate D2E/DX2                !
 ! D8    D(47,1,2,27)           88.615          estimate D2E/DX2                !
 ! D9    D(13,2,4,6)           179.9211         estimate D2E/DX2                !
 ! D10   D(13,2,4,29)           -2.3582         estimate D2E/DX2                !
 ! D11   D(27,2,4,6)            -2.3975         estimate D2E/DX2                !
 ! D12   D(27,2,4,29)          175.3232         estimate D2E/DX2                !
 ! D13   D(2,1,3,16)          -178.29           estimate D2E/DX2                !
 ! D14   D(2,1,3,19)            -4.0994         estimate D2E/DX2                !
 ! D15   D(4,1,3,16)             6.5001         estimate D2E/DX2                !
 ! D16   D(4,1,3,19)          -179.3094         estimate D2E/DX2                !
 ! D17   D(38,1,3,16)           93.9337         estimate D2E/DX2                !
 ! D18   D(38,1,3,19)          -91.8758         estimate D2E/DX2                !
 ! D19   D(47,1,3,16)          -88.8556         estimate D2E/DX2                !
 ! D20   D(47,1,3,19)           85.335          estimate D2E/DX2                !
 ! D21   D(16,3,5,9)          -175.3228         estimate D2E/DX2                !
 ! D22   D(16,3,5,12)            2.3729         estimate D2E/DX2                !
 ! D23   D(19,3,5,9)             2.3862         estimate D2E/DX2                !
 ! D24   D(19,3,5,12)         -179.9181         estimate D2E/DX2                !
 ! D25   D(3,1,4,6)            179.3815         estimate D2E/DX2                !
 ! D26   D(3,1,4,29)            -6.478          estimate D2E/DX2                !
 ! D27   D(5,1,4,6)              4.0915         estimate D2E/DX2                !
 ! D28   D(5,1,4,29)           178.232          estimate D2E/DX2                !
 ! D29   D(38,1,4,6)            91.9214         estimate D2E/DX2                !
 ! D30   D(38,1,4,29)          -93.9381         estimate D2E/DX2                !
 ! D31   D(47,1,4,6)           -91.0701         estimate D2E/DX2                !
 ! D32   D(47,1,4,29)           83.0704         estimate D2E/DX2                !
 ! D33   D(2,1,5,9)              6.4961         estimate D2E/DX2                !
 ! D34   D(2,1,5,12)          -179.3296         estimate D2E/DX2                !
 ! D35   D(4,1,5,9)           -178.293          estimate D2E/DX2                !
 ! D36   D(4,1,5,12)            -4.1186         estimate D2E/DX2                !
 ! D37   D(38,1,5,9)            94.3091         estimate D2E/DX2                !
 ! D38   D(38,1,5,12)          -91.5165         estimate D2E/DX2                !
 ! D39   D(47,1,5,9)           -82.8889         estimate D2E/DX2                !
 ! D40   D(47,1,5,12)           91.2854         estimate D2E/DX2                !
 ! D41   D(2,1,38,39)         -135.2503         estimate D2E/DX2                !
 ! D42   D(2,1,38,42)           44.6448         estimate D2E/DX2                !
 ! D43   D(3,1,38,39)          -44.81           estimate D2E/DX2                !
 ! D44   D(3,1,38,42)          135.0852         estimate D2E/DX2                !
 ! D45   D(4,1,38,39)           44.7786         estimate D2E/DX2                !
 ! D46   D(4,1,38,42)         -135.3263         estimate D2E/DX2                !
 ! D47   D(5,1,38,39)          135.2215         estimate D2E/DX2                !
 ! D48   D(5,1,38,42)          -44.8834         estimate D2E/DX2                !
 ! D49   D(39,38,47,48)         93.2113         estimate D2E/DX2                !
 ! D50   D(42,38,47,48)        -89.6954         estimate D2E/DX2                !
 ! D51   D(2,1,47,48)         -132.8686         estimate D2E/DX2                !
 ! D52   D(3,1,47,48)          136.7864         estimate D2E/DX2                !
 ! D53   D(4,1,47,48)           47.3524         estimate D2E/DX2                !
 ! D54   D(5,1,47,48)          -43.4751         estimate D2E/DX2                !
 ! D55   D(1,2,13,14)          175.3779         estimate D2E/DX2                !
 ! D56   D(1,2,13,20)           -3.7101         estimate D2E/DX2                !
 ! D57   D(27,2,13,14)           0.2788         estimate D2E/DX2                !
 ! D58   D(27,2,13,20)        -178.8092         estimate D2E/DX2                !
 ! D59   D(1,2,27,15)         -175.28           estimate D2E/DX2                !
 ! D60   D(1,2,27,28)            5.0197         estimate D2E/DX2                !
 ! D61   D(13,2,27,15)          -0.2263         estimate D2E/DX2                !
 ! D62   D(13,2,27,28)        -179.9266         estimate D2E/DX2                !
 ! D63   D(1,3,16,17)          175.3411         estimate D2E/DX2                !
 ! D64   D(1,3,16,31)           -5.158          estimate D2E/DX2                !
 ! D65   D(19,3,16,17)           0.213          estimate D2E/DX2                !
 ! D66   D(19,3,16,31)         179.7139         estimate D2E/DX2                !
 ! D67   D(1,3,19,18)         -175.4167         estimate D2E/DX2                !
 ! D68   D(1,3,19,20)            3.694          estimate D2E/DX2                !
 ! D69   D(16,3,19,18)          -0.2444         estimate D2E/DX2                !
 ! D70   D(16,3,19,20)         178.8664         estimate D2E/DX2                !
 ! D71   D(1,4,6,7)            175.4107         estimate D2E/DX2                !
 ! D72   D(1,4,6,30)            -3.6389         estimate D2E/DX2                !
 ! D73   D(29,4,6,7)             0.2797         estimate D2E/DX2                !
 ! D74   D(29,4,6,30)         -178.7699         estimate D2E/DX2                !
 ! D75   D(1,4,29,8)          -175.3329         estimate D2E/DX2                !
 ! D76   D(1,4,29,31)            5.1182         estimate D2E/DX2                !
 ! D77   D(6,4,29,8)            -0.247          estimate D2E/DX2                !
 ! D78   D(6,4,29,31)         -179.7959         estimate D2E/DX2                !
 ! D79   D(1,5,9,10)           175.3052         estimate D2E/DX2                !
 ! D80   D(1,5,9,28)            -5.0161         estimate D2E/DX2                !
 ! D81   D(12,5,9,10)            0.1912         estimate D2E/DX2                !
 ! D82   D(12,5,9,28)          179.8699         estimate D2E/DX2                !
 ! D83   D(1,5,12,11)         -175.4067         estimate D2E/DX2                !
 ! D84   D(1,5,12,30)            3.7053         estimate D2E/DX2                !
 ! D85   D(9,5,12,11)           -0.2473         estimate D2E/DX2                !
 ! D86   D(9,5,12,30)          178.8646         estimate D2E/DX2                !
 ! D87   D(4,6,7,8)             -0.2098         estimate D2E/DX2                !
 ! D88   D(4,6,7,33)          -179.74           estimate D2E/DX2                !
 ! D89   D(30,6,7,8)           178.8536         estimate D2E/DX2                !
 ! D90   D(30,6,7,33)           -0.6766         estimate D2E/DX2                !
 ! D91   D(4,6,30,12)            1.594          estimate D2E/DX2                !
 ! D92   D(4,6,30,32)          179.9456         estimate D2E/DX2                !
 ! D93   D(7,6,30,12)         -177.3238         estimate D2E/DX2                !
 ! D94   D(7,6,30,32)            1.0277         estimate D2E/DX2                !
 ! D95   D(6,7,8,29)             0.0523         estimate D2E/DX2                !
 ! D96   D(6,7,8,34)          -179.4202         estimate D2E/DX2                !
 ! D97   D(33,7,8,29)          179.5589         estimate D2E/DX2                !
 ! D98   D(33,7,8,34)            0.0863         estimate D2E/DX2                !
 ! D99   D(7,8,29,4)             0.12           estimate D2E/DX2                !
 ! D100  D(7,8,29,31)          179.676          estimate D2E/DX2                !
 ! D101  D(34,8,29,4)          179.6181         estimate D2E/DX2                !
 ! D102  D(34,8,29,31)          -0.8259         estimate D2E/DX2                !
 ! D103  D(5,9,10,11)           -0.0605         estimate D2E/DX2                !
 ! D104  D(5,9,10,25)         -179.72           estimate D2E/DX2                !
 ! D105  D(28,9,10,11)        -179.7428         estimate D2E/DX2                !
 ! D106  D(28,9,10,25)           0.5977         estimate D2E/DX2                !
 ! D107  D(5,9,28,27)            0.7733         estimate D2E/DX2                !
 ! D108  D(5,9,28,36)         -179.8894         estimate D2E/DX2                !
 ! D109  D(10,9,28,27)        -179.5928         estimate D2E/DX2                !
 ! D110  D(10,9,28,36)          -0.2555         estimate D2E/DX2                !
 ! D111  D(9,10,11,12)          -0.0895         estimate D2E/DX2                !
 ! D112  D(9,10,11,26)        -179.6804         estimate D2E/DX2                !
 ! D113  D(25,10,11,12)        179.5526         estimate D2E/DX2                !
 ! D114  D(25,10,11,26)         -0.0384         estimate D2E/DX2                !
 ! D115  D(10,11,12,5)           0.2141         estimate D2E/DX2                !
 ! D116  D(10,11,12,30)       -178.9155         estimate D2E/DX2                !
 ! D117  D(26,11,12,5)         179.8247         estimate D2E/DX2                !
 ! D118  D(26,11,12,30)          0.6951         estimate D2E/DX2                !
 ! D119  D(5,12,30,6)           -1.6299         estimate D2E/DX2                !
 ! D120  D(5,12,30,32)        -179.9832         estimate D2E/DX2                !
 ! D121  D(11,12,30,6)         177.3616         estimate D2E/DX2                !
 ! D122  D(11,12,30,32)         -0.9916         estimate D2E/DX2                !
 ! D123  D(2,13,14,15)          -0.2299         estimate D2E/DX2                !
 ! D124  D(2,13,14,24)        -179.8298         estimate D2E/DX2                !
 ! D125  D(20,13,14,15)        178.8718         estimate D2E/DX2                !
 ! D126  D(20,13,14,24)         -0.7282         estimate D2E/DX2                !
 ! D127  D(2,13,20,19)           1.6833         estimate D2E/DX2                !
 ! D128  D(2,13,20,23)         179.9718         estimate D2E/DX2                !
 ! D129  D(14,13,20,19)       -177.2786         estimate D2E/DX2                !
 ! D130  D(14,13,20,23)          1.01           estimate D2E/DX2                !
 ! D131  D(13,14,15,27)          0.0836         estimate D2E/DX2                !
 ! D132  D(13,14,15,37)       -179.5499         estimate D2E/DX2                !
 ! D133  D(24,14,15,27)        179.6633         estimate D2E/DX2                !
 ! D134  D(24,14,15,37)          0.0299         estimate D2E/DX2                !
 ! D135  D(14,15,27,2)           0.0864         estimate D2E/DX2                !
 ! D136  D(14,15,27,28)        179.7912         estimate D2E/DX2                !
 ! D137  D(37,15,27,2)         179.7377         estimate D2E/DX2                !
 ! D138  D(37,15,27,28)         -0.5575         estimate D2E/DX2                !
 ! D139  D(3,16,17,18)          -0.1002         estimate D2E/DX2                !
 ! D140  D(3,16,17,21)        -179.6096         estimate D2E/DX2                !
 ! D141  D(31,16,17,18)       -179.6063         estimate D2E/DX2                !
 ! D142  D(31,16,17,21)          0.8842         estimate D2E/DX2                !
 ! D143  D(3,16,31,29)           1.0577         estimate D2E/DX2                !
 ! D144  D(3,16,31,35)        -179.9603         estimate D2E/DX2                !
 ! D145  D(17,16,31,29)       -179.5113         estimate D2E/DX2                !
 ! D146  D(17,16,31,35)         -0.5293         estimate D2E/DX2                !
 ! D147  D(16,17,18,19)         -0.0501         estimate D2E/DX2                !
 ! D148  D(16,17,18,22)       -179.5801         estimate D2E/DX2                !
 ! D149  D(21,17,18,19)        179.4343         estimate D2E/DX2                !
 ! D150  D(21,17,18,22)         -0.0957         estimate D2E/DX2                !
 ! D151  D(17,18,19,3)           0.1862         estimate D2E/DX2                !
 ! D152  D(17,18,19,20)       -178.9408         estimate D2E/DX2                !
 ! D153  D(22,18,19,3)         179.7387         estimate D2E/DX2                !
 ! D154  D(22,18,19,20)          0.6117         estimate D2E/DX2                !
 ! D155  D(3,19,20,13)          -1.6748         estimate D2E/DX2                !
 ! D156  D(3,19,20,23)        -179.961          estimate D2E/DX2                !
 ! D157  D(18,19,20,13)        177.3145         estimate D2E/DX2                !
 ! D158  D(18,19,20,23)         -0.9716         estimate D2E/DX2                !
 ! D159  D(2,27,28,9)           -0.7766         estimate D2E/DX2                !
 ! D160  D(2,27,28,36)         179.8852         estimate D2E/DX2                !
 ! D161  D(15,27,28,9)         179.5643         estimate D2E/DX2                !
 ! D162  D(15,27,28,36)          0.2261         estimate D2E/DX2                !
 ! D163  D(4,29,31,16)          -1.0357         estimate D2E/DX2                !
 ! D164  D(4,29,31,35)         179.9812         estimate D2E/DX2                !
 ! D165  D(8,29,31,16)         179.4772         estimate D2E/DX2                !
 ! D166  D(8,29,31,35)           0.4941         estimate D2E/DX2                !
 ! D167  D(1,38,39,40)         179.9143         estimate D2E/DX2                !
 ! D168  D(1,38,39,43)          -0.0855         estimate D2E/DX2                !
 ! D169  D(42,38,39,40)         -0.0002         estimate D2E/DX2                !
 ! D170  D(42,38,39,43)       -180.0            estimate D2E/DX2                !
 ! D171  D(1,38,42,41)        -179.9126         estimate D2E/DX2                !
 ! D172  D(1,38,42,46)           0.0886         estimate D2E/DX2                !
 ! D173  D(39,38,42,41)         -0.0031         estimate D2E/DX2                !
 ! D174  D(39,38,42,46)        179.9981         estimate D2E/DX2                !
 ! D175  D(38,39,40,41)          0.0033         estimate D2E/DX2                !
 ! D176  D(38,39,40,44)        179.9963         estimate D2E/DX2                !
 ! D177  D(43,39,40,41)       -179.9969         estimate D2E/DX2                !
 ! D178  D(43,39,40,44)         -0.0039         estimate D2E/DX2                !
 ! D179  D(39,40,41,42)         -0.005          estimate D2E/DX2                !
 ! D180  D(39,40,41,45)       -179.9995         estimate D2E/DX2                !
 ! D181  D(44,40,41,42)       -179.998          estimate D2E/DX2                !
 ! D182  D(44,40,41,45)          0.0076         estimate D2E/DX2                !
 ! D183  D(40,41,42,38)          0.005          estimate D2E/DX2                !
 ! D184  D(40,41,42,46)       -179.9963         estimate D2E/DX2                !
 ! D185  D(45,41,42,38)        179.9987         estimate D2E/DX2                !
 ! D186  D(45,41,42,46)         -0.0026         estimate D2E/DX2                !
 ! D187  D(1,47,48,49)        -117.5834         estimate D2E/DX2                !
 ! D188  D(47,48,49,50)          3.0734         estimate D2E/DX2                !
 --------------------------------------------------------------------------------
 Trust Radius=3.00D-01 FncErr=1.00D-07 GrdErr=1.00D-06
 Number of steps in this run=    200 maximum allowed number of steps=    300.
 GradGradGradGradGradGradGradGradGradGradGradGradGradGradGradGradGradGrad

                          Input orientation:                          
 ---------------------------------------------------------------------
 Center     Atomic      Atomic             Coordinates (Angstroms)
 Number     Number       Type             X           Y           Z
 ---------------------------------------------------------------------
      1         26           0        0.006897   -0.003823    0.006225
      2          7           0        0.005237   -0.006885    2.030362
      3          7           0        2.031391   -0.008680   -0.004172
      4          7           0        0.014724   -0.169749   -2.010383
      5          7           0       -2.009722   -0.165067    0.023887
      6          6           0       -1.088928   -0.246687   -2.826356
      7          6           0       -0.677692   -0.248155   -4.220763
      8          6           0        0.682688   -0.166582   -4.232084
      9          6           0       -2.837034   -0.108209    1.121926
     10          6           0       -4.228210   -0.155335    0.702063
     11          6           0       -4.223712   -0.239537   -0.657833
     12          6           0       -2.830893   -0.242116   -1.075625
     13          6           0        1.108626    0.068524    2.846492
     14          6           0        0.694050    0.148084    4.238034
     15          6           0       -0.668197    0.124780    4.246452
     16          6           0        2.855671    0.023775   -1.106049
     17          6           0        4.244691    0.118049   -0.687676
     18          6           0        4.241961    0.143872    0.674963
     19          6           0        2.852547    0.066798    1.095677
     20          6           0        2.435566    0.087719    2.418059
     21          1           0        5.087186    0.165179   -1.359455
     22          1           0        5.083307    0.215150    1.346311
     23          1           0        3.202457    0.150567    3.181754
     24          1           0        1.369227    0.218400    5.076326
     25          1           0       -5.073427   -0.121424    1.371082
     26          1           0       -5.065986   -0.289242   -1.329890
     27          6           0       -1.092617    0.028772    2.859146
     28          6           0       -2.414725   -0.024774    2.448370
     29          6           0        1.109297   -0.116121   -2.843265
     30          6           0       -2.414761   -0.295238   -2.396006
     31          6           0        2.432261   -0.035775   -2.434028
     32          1           0       -3.184293   -0.353953   -3.157367
     33          1           0       -1.353857   -0.297277   -5.059823
     34          1           0        1.347352   -0.134016   -5.080880
     35          1           0        3.193057   -0.000928   -3.205453
     36          1           0       -3.178248    0.011250    3.216900
     37          1           0       -1.336535    0.172449    5.091557
     38          7           0        0.095462   -2.085452    0.083409
     39          6           0        0.895623   -2.824852   -0.661874
     40          7           0        0.718478   -4.145704   -0.375627
     41          6           0       -0.249518   -4.245483    0.607080
     42          6           0       -0.624793   -2.950577    0.879281
     43          1           0        1.592559   -2.452619   -1.394011
     44          1           0        1.209954   -4.917326   -0.807541
     45          1           0       -0.573069   -5.188469    1.009869
     46          1           0       -1.353512   -2.589609    1.583580
     47          8           0        0.023959    1.801902    0.026720
     48          8           0       -0.974680    2.429126   -0.900271
     49          7           0       -0.460953    3.239069   -1.960591
     50          8           0        0.719078    3.296126   -2.044902
 ---------------------------------------------------------------------
                    Distance matrix (angstroms):
                    1          2          3          4          5
     1  Fe   0.000000
     2  N    2.024140   0.000000
     3  N    2.024526   2.871346   0.000000
     4  N    2.023437   4.044037   2.849170   0.000000
     5  N    2.023132   2.847986   4.044235   2.869958   0.000000
     6  C    3.046855   4.984216   4.213995   1.374693   2.996399
     7  C    4.289030   6.292945   5.017580   2.317621   4.449523
     8  C    4.294932   6.301005   4.440627   2.319944   5.036106
     9  C    3.056736   2.985637   4.997956   4.236469   1.375997
    10  C    4.294564   4.439424   6.301021   5.035877   2.319850
    11  C    4.288891   5.016426   6.293399   4.449562   2.317766
    12  C    3.046347   4.212614   4.984406   2.996088   1.374476
    13  C    3.047320   1.374490   2.997289   4.984238   4.212571
    14  C    4.289926   2.317822   4.450772   6.293268   5.016721
    15  C    4.295558   2.319893   5.037201   6.300882   4.440017
    16  C    3.058337   4.238276   1.376453   2.987683   4.998446
    17  C    4.295957   5.037490   2.319900   4.441284   6.301124
    18  C    4.290080   4.450805   2.317567   5.017865   6.293082
    19  C    3.047887   2.997705   1.374650   4.213882   4.984391
    20  C    3.423997   2.462876   2.457611   5.053500   5.055348
    21  H    5.263362   6.111192   3.347373   5.125012   7.238011
    22  H    5.254876   5.128744   3.344862   6.091475   7.225263
    23  H    4.507707   3.401868   3.398070   6.101026   6.102340
    24  H    5.254641   3.345014   5.128497   7.225426   6.090278
    25  H    5.261783   5.122558   7.237573   6.109495   3.347107
    26  H    5.253647   6.090018   7.225579   5.127471   3.344978
    27  C    3.057639   1.376023   4.237856   4.997793   2.986194
    28  C    3.439298   2.455864   5.077713   5.079737   2.462079
    29  C    3.057366   4.998312   2.987013   1.376466   4.236890
    30  C    3.423458   5.052946   5.056802   2.463098   2.457007
    31  C    3.440675   5.081541   2.462850   2.458029   5.078314
    32  H    4.507172   6.099679   6.104524   3.403412   3.396420
    33  H    5.253818   7.225108   6.091206   3.344901   5.127547
    34  H    5.262358   7.237900   5.124118   3.347406   6.109792
    35  H    4.523991   6.129925   3.405543   3.399778   6.125723
    36  H    4.522589   3.397467   6.125034   6.127995   3.404684
    37  H    5.262745   3.347152   6.110825   7.237441   5.123317
    38  N    2.084941   2.849422   2.840506   2.839085   2.850126
    39  C    3.032225   3.997732   3.106986   3.105484   3.998218
    40  N    4.219874   4.840178   4.356224   4.356136   4.842330
    41  C    4.291673   4.478432   4.850431   4.851036   4.481989
    42  C    3.137614   3.222926   4.060857   4.061052   3.226266
    43  H    3.235982   4.497503   2.845534   2.842705   4.496638
    44  H    5.123678   5.798058   5.041326   5.041319   5.800134
    45  H    5.312646   5.312688   5.885720   5.886847   5.317019
    46  H    3.320399   2.952334   4.543095   4.543607   2.956629
    47  O    1.805922   2.699378   2.703506   2.835010   2.829281
    48  O    2.775693   3.934844   3.972701   2.994232   2.941975
    49  N    3.821466   5.165390   4.537315   3.442207   4.233791
    50  O    3.950188   5.294074   4.099815   3.536890   4.868891
                    6          7          8          9         10
     6  C    0.000000
     7  C    1.453784   0.000000
     8  C    2.262988   1.362871   0.000000
     9  C    4.320183   5.764258   6.407595   0.000000
    10  C    4.723682   6.070338   6.961526   1.453917   0.000000
    11  C    3.811747   5.026808   6.070696   2.260014   1.362507
    12  C    2.469720   3.811588   4.723789   2.201635   2.262786
    13  C    6.091782   7.296390   7.095275   4.309710   5.755910
    14  C    7.296606   8.578457   8.475968   4.716394   6.068261
    15  C    7.095041   8.475429   8.590422   3.810617   5.031386
    16  C    4.311899   4.718055   3.811848   6.114588   7.313188
    17  C    5.757993   6.070145   5.033061   7.312776   8.590469
    18  C    6.389847   6.951604   6.069918   7.097569   8.475497
    19  C    5.569187   6.389547   5.757411   5.692333   7.095167
    20  C    6.327541   7.340241   6.881980   5.433108   6.885465
    21  H    6.361275   6.449166   5.268933   8.308144   9.546160
    22  H    7.464645   8.024716   7.115452   7.930115   9.341127
    23  H    7.393996   8.367304   7.836760   6.386338   7.839467
    24  H    8.289222   9.531181   9.341629   5.782438   7.113730
    25  H    5.788817   7.113879   8.033079   2.250268   1.078485
    26  H    4.249495   5.255089   6.440887   3.318493   2.201961
    27  C    5.692172   7.097462   7.312689   2.465703   3.810360
    28  C    5.443319   6.895253   7.364954   1.394547   2.520984
    29  C    2.202164   2.260146   1.453739   5.594313   6.407797
    30  C    1.394772   2.519794   3.603044   3.548118   3.592520
    31  C    3.549250   3.592956   2.512194   6.357321   7.362827
    32  H    2.124059   2.724895   4.017918   4.300387   4.003050
    33  H    2.249694   1.078719   2.202215   6.359998   6.440604
    34  H    3.321301   2.203096   1.078561   7.482283   8.033043
    35  H    4.305753   4.009323   2.717235   7.422918   8.388547
    36  H    6.399432   7.851044   8.392009   2.125938   2.730306
    37  H    7.932864   9.345067   9.545809   4.253027   5.266582
    38  N    3.640133   4.743345   4.759241   3.686128   4.775167
    39  C    3.907730   4.666945   4.456247   4.949224   5.936354
    40  N    4.947234   5.650244   5.541386   5.584416   6.446253
    41  C    5.336990   6.282518   6.397183   4.906867   5.706866
    42  C    4.610660   5.772030   5.965416   3.609978   4.563923
    43  H    3.756078   4.243139   3.756127   5.607806   6.599423
    44  H    5.583488   6.083950   5.880057   6.574844   7.384381
    45  H    6.277255   7.195634   7.367112   5.563015   6.227940
    46  H    5.000682   6.295199   6.621111   2.927680   3.868675
    47  O    3.684464   4.768244   4.737748   3.610164   4.729461
    48  O    3.298914   4.275711   4.537130   3.741084   4.453354
    49  N    3.646148   4.161260   4.250418   5.133415   5.727471
    50  O    4.053527   4.387170   4.095782   5.853566   6.628277
                   11         12         13         14         15
    11  C    0.000000
    12  C    1.454133   0.000000
    13  C    6.388194   5.567702   0.000000
    14  C    6.950118   6.388462   1.454164   0.000000
    15  C    6.068477   5.756419   2.262776   1.362473   0.000000
    16  C    7.098443   5.692858   4.321660   5.766046   6.409143
    17  C    8.476002   7.095358   4.725220   6.072115   6.962912
    18  C    8.578517   7.296492   3.813005   5.028237   6.071701
    19  C    7.296717   6.091918   2.471157   3.813152   4.725080
    20  C    7.342628   6.328523   1.394523   2.519689   3.602464
    21  H    9.346063   7.933625   5.790360   7.115604   8.034442
    22  H    9.531208   8.289115   4.250898   5.256628   6.441955
    23  H    8.369145   7.394645   2.122088   2.721734   4.014500
    24  H    8.023169   7.463215   2.250008   1.078675   2.201943
    25  H    2.202830   3.321130   6.358513   6.446382   5.266347
    26  H    1.078683   2.250003   7.462974   8.023157   7.113898
    27  C    4.716448   4.310152   2.201639   2.260033   1.453948
    28  C    3.600980   3.555134   3.547000   3.591275   2.511140
    29  C    5.764749   4.320361   5.692753   7.098383   7.313112
    30  C    2.509313   1.385422   6.326955   7.339736   6.881071
    31  C    6.891905   5.439542   5.444886   6.897217   7.366643
    32  H    2.709456   2.114486   7.392832   8.365737   7.834313
    33  H    5.255180   4.249530   8.288996   9.531129   9.341039
    34  H    7.114158   5.788910   7.933552   9.346045   9.546127
    35  H    7.845748   6.393927   6.401227   7.853199   8.393805
    36  H    4.021124   4.314003   4.303228   4.007011   2.715368
    37  H    6.446783   6.359175   3.321134   2.202809   1.078494
    38  N    4.755219   3.647574   3.647018   4.754777   4.774854
    39  C    5.735108   4.552870   4.552541   5.734814   5.936121
    40  N    6.305793   5.322220   5.319209   6.302626   6.443875
    41  C    5.782891   5.051924   5.046799   5.777334   5.702589
    42  C    4.760743   4.003035   3.998704   4.756288   4.560433
    43  H    6.266474   4.955261   4.957037   6.268246   6.600668
    44  H    7.171391   6.185297   6.182308   7.168150   7.381947
    45  H    6.371841   5.823526   5.816980   6.364389   6.222149
    46  H    4.334146   3.842492   3.837022   4.328233   3.863735
    47  O    4.762225   3.680129   3.483133   4.573763   4.593251
    48  O    4.211501   3.257577   4.893960   5.864298   5.647362
    49  N    5.287365   4.303304   5.968583   7.022192   6.947599
    50  O    6.233462   5.104992   5.873236   7.027523   7.180745
                   16         17         18         19         20
    16  C    0.000000
    17  C    1.453719   0.000000
    18  C    2.260138   1.362886   0.000000
    19  C    2.202148   2.262972   1.453758   0.000000
    20  C    3.549635   3.594363   2.510896   1.386724   0.000000
    21  H    2.250304   1.078566   2.203115   3.321289   4.615918
    22  H    3.318592   2.202229   1.078728   2.249692   2.859268
    23  H    4.303671   4.007468   2.713783   2.116877   1.084113
    24  H    6.361537   6.442211   5.256439   4.250739   2.867149
    25  H    8.308300   9.545845   9.345128   7.932991   7.584516
    26  H    7.930998   9.341682   9.531258   8.289349   8.394194
    27  C    5.595693   6.408961   5.765555   4.321527   3.556137
    28  C    6.357148   7.362270   6.890928   5.438963   4.851691
    29  C    2.467248   3.812099   4.717956   4.311339   5.429739
    30  C    5.435367   6.887488   7.344087   6.329886   6.844527
    31  C    1.395117   2.521569   3.601820   3.556119   4.853659
    32  H    6.389973   7.842956   8.371608   7.396543   7.928636
    33  H    5.784076   7.115610   8.024684   7.464353   8.392060
    34  H    4.254317   5.268620   6.448698   6.360488   7.580730
    35  H    2.126484   2.731170   4.022286   4.315119   5.674991
    36  H    7.422683   8.387917   7.844650   6.393212   5.670883
    37  H    7.483783   8.034462   7.115247   5.790218   4.624232
    38  N    3.671839   4.760892   4.744815   3.641207   3.955926
    39  C    3.486224   4.458429   4.668879   3.908987   4.510043
    40  N    4.741906   5.541764   5.649702   4.946126   5.354899
    41  C    5.550097   6.396462   6.280480   5.334539   5.409803
    42  C    4.990184   5.965208   5.770845   4.609043   4.578743
    43  H    2.794799   3.760458   4.247557   3.759465   4.657881
    44  H    5.216510   5.880391   6.083306   5.582280   6.079235
    45  H    6.587932   7.365568   7.192394   6.273758   6.234825
    46  H    5.637473   6.620415   6.293394   4.998547   4.713974
    47  O    3.530368   4.600033   4.578299   3.486283   3.804310
    48  O    4.527654   5.712103   5.909069   4.920576   5.303139
    49  N    4.697697   5.788279   6.216413   5.512111   6.123186
    50  O    4.019298   4.936819   5.453904   4.984324   5.758318
                   21         22         23         24         25
    21  H    0.000000
    22  H    2.706231   0.000000
    23  H    4.916807   2.628805   0.000000
    24  H    7.432720   5.263783   2.637183   0.000000
    25  H   10.525019  10.162339   8.476011   7.439899   0.000000
    26  H   10.163379  10.508311   9.429501   9.094463   2.706190
    27  C    7.483660   6.361246   4.308894   3.318512   4.252498
    28  C    8.415122   7.582386   5.667568   4.613413   2.870294
    29  C    4.254929   5.784034   6.383831   7.930914   7.482435
    30  C    7.587202   8.395621   7.928637   8.391551   4.614073
    31  C    2.871187   4.624065   5.671414   7.589470   8.415554
    32  H    8.480528   9.431872   9.012745   9.426337   4.912204
    33  H    7.442689   9.096055   9.427839  10.508217   7.431195
    34  H    5.284400   7.442316   8.473106  10.163342   9.102438
    35  H    2.650099   4.933385   6.389010   8.483060   9.449547
    36  H    9.449028   8.473132   6.382323   4.917307   2.648839
    37  H    9.103834   7.432567   4.924456   2.706195   5.281350
    38  N    5.662553   5.636159   4.924727   5.644416   5.677404
    39  C    5.195778   5.550777   5.380342   6.512497   6.860830
    40  N    6.215886   6.405768   6.105985   7.013749   7.265809
    41  C    7.197333   6.991619   6.153888   6.520794   6.392313
    42  C    6.880885   6.543879   5.437492   5.624386   5.294933
    43  H    4.366518   5.178000   5.505086   7.003533   7.583903
    44  H    6.416338   6.781170   6.750414   7.811591   8.199266
    45  H    8.143323   7.829871   6.890354   7.038666   6.786652
    46  H    7.598217   7.025354   5.551538   5.243805   4.469324
    47  O    5.498783   5.464074   4.773258   5.460379   5.611580
    48  O    6.487105   6.829936   6.269229   6.789766   5.335173
    49  N    6.371186   7.128710   7.028736   7.873513   6.608167
    50  O    5.417844   6.327656   6.586322   7.785048   7.543322
                   26         27         28         29         30
    26  H    0.000000
    27  C    5.782457   0.000000
    28  C    4.623243   1.385487   0.000000
    29  C    6.360377   6.114484   6.358340   0.000000
    30  C    2.857557   5.428598   4.851921   3.556840   0.000000
    31  C    7.583341   6.359766   6.879768   1.387142   4.854110
    32  H    2.623857   6.381224   5.667882   4.311629   1.084112
    33  H    5.262353   7.929983   7.587665   3.318595   2.867306
    34  H    7.431347   8.308067   8.417528   2.250314   4.624720
    35  H    8.474234   7.426119   7.963260   2.118137   5.673574
    36  H    4.932255   2.116164   1.083929   7.424613   5.672879
    37  H    7.440224   2.250288   2.861438   8.308235   7.579241
    38  N    5.644849   3.685946   4.017521   3.670360   3.956461
    39  C    6.512783   4.949127   5.335959   3.484443   4.512737
    40  N    7.017331   5.583017   5.896948   4.741257   5.359590
    41  C    6.527025   4.904272   5.088503   5.550035   5.413985
    42  C    5.629150   3.607666   3.771767   4.989846   4.580646
    43  H    7.001466   5.608638   6.059427   2.791613   4.660139
    44  H    7.815333   6.573456   6.904805   5.215925   6.084856
    45  H    7.047212   5.559619   5.667868   6.588300   6.239833
    46  H    5.249996   2.924218   2.907304   5.637422   4.714604
    47  O    5.667522   3.523261   3.892084   3.618506   4.026779
    48  O    4.930809   4.461931   4.394173   3.820534   3.425378
    49  N    5.835502   5.825365   5.823130   3.808163   4.061807
    50  O    6.843469   6.165025   6.406137   3.526058   4.779343
                   31         32         33         34         35
    31  C    0.000000
    32  H    5.671872   0.000000
    33  H    4.614962   2.640653   0.000000
    34  H    2.862255   4.927888   2.706220   0.000000
    35  H    1.084030   6.387295   4.919445   2.634686   0.000000
    36  H    7.963229   6.384723   8.481022   9.452794   9.046562
    37  H    8.419122   8.469714  10.162256  10.525001   9.454503
    38  N    3.999912   4.925191   5.634796   5.660849   4.975635
    39  C    3.644274   5.383172   5.548941   5.193484   4.441007
    40  N    4.905669   6.111225   6.406767   6.215186   5.595590
    41  C    5.844820   6.158569   6.994404   7.197712   6.663556
    42  C    5.368395   5.439487   6.545570   6.880836   6.321508
    43  H    2.761860   5.507462   5.173495   4.362231   3.442921
    44  H    5.288576   6.756883   6.782321   6.415634   5.818389
    45  H    6.887865   6.896150   7.834191   8.144491   7.672237
    46  H    6.082377   5.552161   7.027773   7.598660   7.092770
    47  O    3.902852   5.007894   5.672552   5.620207   4.872404
    48  O    4.476092   4.209799   4.987878   5.425774   5.346874
    49  N    4.395388   4.664618   4.786257   4.938003   5.039747
    50  O    3.766693   5.458659   5.128289   4.623609   4.282290
                   36         37         38         39         40
    36  H    0.000000
    37  H    2.632913   0.000000
    38  N    4.993206   5.677172   0.000000
    39  C    6.299586   6.860635   1.320006   0.000000
    40  N    6.735799   7.263582   2.200796   1.363073   0.000000
    41  C    5.788644   6.388292   2.249217   2.222563   1.382998
    42  C    4.555987   5.291799   1.378630   2.168555   2.192601
    43  H    7.077553   7.585062   2.135153   1.077173   2.160477
    44  H    7.729380   8.196937   3.171025   2.120960   1.011681
    45  H    6.220532   6.781040   3.306656   3.246300   2.162186
    46  H    3.572375   4.464880   2.145743   3.186850   3.248548
    47  O    4.861873   5.491688   3.888425   4.758236   6.001522
    48  O    5.258605   6.412919   4.742810   5.582039   6.809584
    49  N    6.678991   7.739742   5.730450   6.348079   7.644479
    50  O    7.325717   8.056795   5.820651   6.277762   7.626750
                   41         42         43         44         45
    41  C    0.000000
    42  C    1.375393   0.000000
    43  H    3.257603   3.214416   0.000000
    44  H    2.140697   3.174865   2.562248   0.000000
    45  H    1.075242   2.242295   4.237152   2.560404   0.000000
    46  H    2.216817   1.075810   4.190960   4.207979   2.773501
    47  O    6.081322   4.871735   4.751834   6.873908   7.084370
    48  O    6.881016   5.677186   5.537683   7.664959   7.863694
    49  N    7.915565   6.812007   6.077272   8.405251   8.936420
    50  O    8.052767   7.026958   5.851042   8.320626   9.109863
                   46         47         48         49         50
    46  H    0.000000
    47  O    4.858663   0.000000
    48  O    5.612551   1.500001   0.000000
    49  N    6.879775   2.499999   1.429756   0.000000
    50  O    7.218267   2.647171   2.220515   1.184415   0.000000
 Stoichiometry    C23H16FeN7O3(2)
 Framework group  C1[X(C23H16FeN7O3)]
 Deg. of freedom   144
 Full point group                 C1      NOp   1
 Largest Abelian subgroup         C1      NOp   1
 Largest concise Abelian subgroup C1      NOp   1
                         Standard orientation:                         
 ---------------------------------------------------------------------
 Center     Atomic      Atomic             Coordinates (Angstroms)
 Number     Number       Type             X           Y           Z
 ---------------------------------------------------------------------
      1         26           0       -0.094621    0.019480   -0.197856
      2          7           0       -2.016840    0.515047   -0.593624
      3          7           0        0.418783    1.977723   -0.177753
      4          7           0        1.789475   -0.461023    0.362141
      5          7           0       -0.644916   -1.922235   -0.056496
      6          6           0        2.274143   -1.726909    0.591072
      7          6           0        3.699840   -1.670999    0.869912
      8          6           0        4.065264   -0.359836    0.801102
      9          6           0       -1.882337   -2.456237   -0.333987
     10          6           0       -1.839547   -3.904580   -0.214206
     11          6           0       -0.563877   -4.230549    0.136276
     12          6           0        0.179243   -2.984176    0.230256
     13          6           0       -2.502018    1.780781   -0.821088
     14          6           0       -3.910803    1.717587   -1.175946
     15          6           0       -4.262725    0.401406   -1.163702
     16          6           0        1.676274    2.504019    0.012912
     17          6           0        1.643433    3.947888   -0.152812
     18          6           0        0.354368    4.278744   -0.446589
     19          6           0       -0.406002    3.039801   -0.463032
     20          6           0       -1.761024    2.959808   -0.746792
     21          1           0        2.500057    4.596808   -0.061143
     22          1           0       -0.059481    5.255332   -0.643202
     23          1           0       -2.282700    3.887328   -0.953821
     24          1           0       -4.524698    2.574287   -1.405594
     25          1           0       -2.678638   -4.560287   -0.384799
     26          1           0       -0.145436   -5.209134    0.311872
     27          6           0       -3.070190   -0.346166   -0.799063
     28          6           0       -3.020050   -1.725115   -0.674324
     29          6           0        2.863075    0.392179    0.480833
     30          6           0        1.525959   -2.903134    0.545185
     31          6           0        2.819765    1.770430    0.330129
     32          1           0        2.045556   -3.832817    0.747685
     33          1           0        4.318296   -2.529753    1.078927
     34          1           0        5.042791    0.074022    0.940753
     35          1           0        3.748247    2.316288    0.452932
     36          1           0       -3.932829   -2.277362   -0.866056
     37          1           0       -5.222227   -0.040356   -1.381311
     38          7           0       -0.546309    0.213416    1.828310
     39          6           0        0.218209    0.836997    2.705280
     40          7           0       -0.351752    0.792343    3.942664
     41          6           0       -1.544896    0.100490    3.840534
     42          6           0       -1.647635   -0.251594    2.514945
     43          1           0        1.158399    1.316199    2.489158
     44          1           0        0.032212    1.195315    4.787463
     45          1           0       -2.189255   -0.073525    4.683545
     46          1           0       -2.428259   -0.799834    2.017525
     47          8           0        0.237591   -0.036353   -1.972080
     48          8           0        0.989278   -1.257981   -2.410937
     49          7           0        2.279526   -1.055552   -2.992732
     50          8           0        2.664572    0.064082   -3.024311
 ---------------------------------------------------------------------
 Rotational constants (GHZ):      0.1614932      0.1539924      0.1261613
 Basis read from chk: NOD_iso_150_250_s2.chk (5D, 7F)
 Pseudo-potential data read from chk file.
 There are   712 symmetry adapted basis functions of A   symmetry.
 Integral buffers will be    131072 words long.
 Raffenetti 2 integral format.
 Two-electron integral symmetry is turned on.
   712 basis functions,  1236 primitive gaussians,   747 cartesian basis functions
   122 alpha electrons      121 beta electrons
       nuclear repulsion energy      4036.0420624834 Hartrees.
 NAtoms=   50 NActive=   50 NUniq=   50 SFac= 1.00D+00 NAtFMM=   50 NAOKFM=T Big=T
 One-electron integrals computed using PRISM.
   1 Symmetry operations used in ECPInt.
 ECPInt:  NShTT=   28203 NPrTT=  130452 LenC2=   23310 LenP2D=   61440.
 LDataN:  DoStor=T MaxTD1= 4 Len=   56
 NBasis=   712 RedAO= T  NBF=   712
 NBsUse=   712 1.00D-06 NBFU=   712
 Initial guess read from the checkpoint file:  NOD_iso_150_250_s2.chk
 B after Tr=     0.000000    0.000000    0.000000
         Rot=    0.998915    0.012944    0.007982   -0.044014 Ang=   5.34 deg.
 Initial guess orbital symmetries:
 Alpha Orbitals:
       Occupied  (A) (A) (A) (A) (A) (A) (A) (A) (A) (A) (A) (A)
                 (A) (A) (A) (A) (A) (A) (A) (A) (A) (A) (A) (A)
                 (A) (A) (A) (A) (A) (A) (A) (A) (A) (A) (A) (A)
                 (A) (A) (A) (A) (A) (A) (A) (A) (A) (A) (A) (A)
                 (A) (A) (A) (A) (A) (A) (A) (A) (A) (A) (A) (A)
                 (A) (A) (A) (A) (A) (A) (A) (A) (A) (A) (A) (A)
                 (A) (A) (A) (A) (A) (A) (A) (A) (A) (A) (A) (A)
                 (A) (A) (A) (A) (A) (A) (A) (A) (A) (A) (A) (A)
                 (A) (A) (A) (A) (A) (A) (A) (A) (A) (A) (A) (A)
                 (A) (A) (A) (A) (A) (A) (A) (A) (A) (A) (A) (A)
                 (A) (A)
       Virtual   (A) (A) (A) (A) (A) (A) (A) (A) (A) (A) (A) (A)
                 (A) (A) (A) (A) (A) (A) (A) (A) (A) (A) (A) (A)
                 (A) (A) (A) (A) (A) (A) (A) (A) (A) (A) (A) (A)
                 (A) (A) (A) (A) (A) (A) (A) (A) (A) (A) (A) (A)
                 (A) (A) (A) (A) (A) (A) (A) (A) (A) (A) (A) (A)
                 (A) (A) (A) (A) (A) (A) (A) (A) (A) (A) (A) (A)
                 (A) (A) (A) (A) (A) (A) (A) (A) (A) (A) (A) (A)
                 (A) (A) (A) (A) (A) (A) (A) (A) (A) (A) (A) (A)
                 (A) (A) (A) (A) (A) (A) (A) (A) (A) (A) (A) (A)
                 (A) (A) (A) (A) (A) (A) (A) (A) (A) (A) (A) (A)
                 (A) (A) (A) (A) (A) (A) (A) (A) (A) (A) (A) (A)
                 (A) (A) (A) (A) (A) (A) (A) (A) (A) (A) (A) (A)
                 (A) (A) (A) (A) (A) (A) (A) (A) (A) (A) (A) (A)
                 (A) (A) (A) (A) (A) (A) (A) (A) (A) (A) (A) (A)
                 (A) (A) (A) (A) (A) (A) (A) (A) (A) (A) (A) (A)
                 (A) (A) (A) (A) (A) (A) (A) (A) (A) (A) (A) (A)
                 (A) (A) (A) (A) (A) (A) (A) (A) (A) (A) (A) (A)
                 (A) (A) (A) (A) (A) (A) (A) (A) (A) (A) (A) (A)
                 (A) (A) (A) (A) (A) (A) (A) (A) (A) (A) (A) (A)
                 (A) (A) (A) (A) (A) (A) (A) (A) (A) (A) (A) (A)
                 (A) (A) (A) (A) (A) (A) (A) (A) (A) (A) (A) (A)
                 (A) (A) (A) (A) (A) (A) (A) (A) (A) (A) (A) (A)
                 (A) (A) (A) (A) (A) (A) (A) (A) (A) (A) (A) (A)
                 (A) (A) (A) (A) (A) (A) (A) (A) (A) (A) (A) (A)
                 (A) (A) (A) (A) (A) (A) (A) (A) (A) (A) (A) (A)
                 (A) (A) (A) (A) (A) (A) (A) (A) (A) (A) (A) (A)
                 (A) (A) (A) (A) (A) (A) (A) (A) (A) (A) (A) (A)
                 (A) (A) (A) (A) (A) (A) (A) (A) (A) (A) (A) (A)
                 (A) (A) (A) (A) (A) (A) (A) (A) (A) (A) (A) (A)
                 (A) (A) (A) (A) (A) (A) (A) (A) (A) (A) (A) (A)
                 (A) (A) (A) (A) (A) (A) (A) (A) (A) (A) (A) (A)
                 (A) (A) (A) (A) (A) (A) (A) (A) (A) (A) (A) (A)
                 (A) (A) (A) (A) (A) (A) (A) (A) (A) (A) (A) (A)
                 (A) (A) (A) (A) (A) (A) (A) (A) (A) (A) (A) (A)
                 (A) (A) (A) (A) (A) (A) (A) (A) (A) (A) (A) (A)
                 (A) (A) (A) (A) (A) (A) (A) (A) (A) (A) (A) (A)
                 (A) (A) (A) (A) (A) (A) (A) (A) (A) (A) (A) (A)
                 (A) (A) (A) (A) (A) (A) (A) (A) (A) (A) (A) (A)
                 (A) (A) (A) (A) (A) (A) (A) (A) (A) (A) (A) (A)
                 (A) (A) (A) (A) (A) (A) (A) (A) (A) (A) (A) (A)
                 (A) (A) (A) (A) (A) (A) (A) (A) (A) (A) (A) (A)
                 (A) (A) (A) (A) (A) (A) (A) (A) (A) (A) (A) (A)
                 (A) (A) (A) (A) (A) (A) (A) (A) (A) (A) (A) (A)
                 (A) (A) (A) (A) (A) (A) (A) (A) (A) (A) (A) (A)
                 (A) (A) (A) (A) (A) (A) (A) (A) (A) (A) (A) (A)
                 (A) (A) (A) (A) (A) (A) (A) (A) (A) (A) (A) (A)
                 (A) (A) (A) (A) (A) (A) (A) (A) (A) (A) (A) (A)
                 (A) (A) (A) (A) (A) (A) (A) (A) (A) (A) (A) (A)
                 (A) (A) (A) (A) (A) (A) (A) (A) (A) (A) (A) (A)
                 (A) (A)
 Beta  Orbitals:
       Occupied  (A) (A) (A) (A) (A) (A) (A) (A) (A) (A) (A) (A)
                 (A) (A) (A) (A) (A) (A) (A) (A) (A) (A) (A) (A)
                 (A) (A) (A) (A) (A) (A) (A) (A) (A) (A) (A) (A)
                 (A) (A) (A) (A) (A) (A) (A) (A) (A) (A) (A) (A)
                 (A) (A) (A) (A) (A) (A) (A) (A) (A) (A) (A) (A)
                 (A) (A) (A) (A) (A) (A) (A) (A) (A) (A) (A) (A)
                 (A) (A) (A) (A) (A) (A) (A) (A) (A) (A) (A) (A)
                 (A) (A) (A) (A) (A) (A) (A) (A) (A) (A) (A) (A)
                 (A) (A) (A) (A) (A) (A) (A) (A) (A) (A) (A) (A)
                 (A) (A) (A) (A) (A) (A) (A) (A) (A) (A) (A) (A)
                 (A)
       Virtual   (A) (A) (A) (A) (A) (A) (A) (A) (A) (A) (A) (A)
                 (A) (A) (A) (A) (A) (A) (A) (A) (A) (A) (A) (A)
                 (A) (A) (A) (A) (A) (A) (A) (A) (A) (A) (A) (A)
                 (A) (A) (A) (A) (A) (A) (A) (A) (A) (A) (A) (A)
                 (A) (A) (A) (A) (A) (A) (A) (A) (A) (A) (A) (A)
                 (A) (A) (A) (A) (A) (A) (A) (A) (A) (A) (A) (A)
                 (A) (A) (A) (A) (A) (A) (A) (A) (A) (A) (A) (A)
                 (A) (A) (A) (A) (A) (A) (A) (A) (A) (A) (A) (A)
                 (A) (A) (A) (A) (A) (A) (A) (A) (A) (A) (A) (A)
                 (A) (A) (A) (A) (A) (A) (A) (A) (A) (A) (A) (A)
                 (A) (A) (A) (A) (A) (A) (A) (A) (A) (A) (A) (A)
                 (A) (A) (A) (A) (A) (A) (A) (A) (A) (A) (A) (A)
                 (A) (A) (A) (A) (A) (A) (A) (A) (A) (A) (A) (A)
                 (A) (A) (A) (A) (A) (A) (A) (A) (A) (A) (A) (A)
                 (A) (A) (A) (A) (A) (A) (A) (A) (A) (A) (A) (A)
                 (A) (A) (A) (A) (A) (A) (A) (A) (A) (A) (A) (A)
                 (A) (A) (A) (A) (A) (A) (A) (A) (A) (A) (A) (A)
                 (A) (A) (A) (A) (A) (A) (A) (A) (A) (A) (A) (A)
                 (A) (A) (A) (A) (A) (A) (A) (A) (A) (A) (A) (A)
                 (A) (A) (A) (A) (A) (A) (A) (A) (A) (A) (A) (A)
                 (A) (A) (A) (A) (A) (A) (A) (A) (A) (A) (A) (A)
                 (A) (A) (A) (A) (A) (A) (A) (A) (A) (A) (A) (A)
                 (A) (A) (A) (A) (A) (A) (A) (A) (A) (A) (A) (A)
                 (A) (A) (A) (A) (A) (A) (A) (A) (A) (A) (A) (A)
                 (A) (A) (A) (A) (A) (A) (A) (A) (A) (A) (A) (A)
                 (A) (A) (A) (A) (A) (A) (A) (A) (A) (A) (A) (A)
                 (A) (A) (A) (A) (A) (A) (A) (A) (A) (A) (A) (A)
                 (A) (A) (A) (A) (A) (A) (A) (A) (A) (A) (A) (A)
                 (A) (A) (A) (A) (A) (A) (A) (A) (A) (A) (A) (A)
                 (A) (A) (A) (A) (A) (A) (A) (A) (A) (A) (A) (A)
                 (A) (A) (A) (A) (A) (A) (A) (A) (A) (A) (A) (A)
                 (A) (A) (A) (A) (A) (A) (A) (A) (A) (A) (A) (A)
                 (A) (A) (A) (A) (A) (A) (A) (A) (A) (A) (A) (A)
                 (A) (A) (A) (A) (A) (A) (A) (A) (A) (A) (A) (A)
                 (A) (A) (A) (A) (A) (A) (A) (A) (A) (A) (A) (A)
                 (A) (A) (A) (A) (A) (A) (A) (A) (A) (A) (A) (A)
                 (A) (A) (A) (A) (A) (A) (A) (A) (A) (A) (A) (A)
                 (A) (A) (A) (A) (A) (A) (A) (A) (A) (A) (A) (A)
                 (A) (A) (A) (A) (A) (A) (A) (A) (A) (A) (A) (A)
                 (A) (A) (A) (A) (A) (A) (A) (A) (A) (A) (A) (A)
                 (A) (A) (A) (A) (A) (A) (A) (A) (A) (A) (A) (A)
                 (A) (A) (A) (A) (A) (A) (A) (A) (A) (A) (A) (A)
                 (A) (A) (A) (A) (A) (A) (A) (A) (A) (A) (A) (A)
                 (A) (A) (A) (A) (A) (A) (A) (A) (A) (A) (A) (A)
                 (A) (A) (A) (A) (A) (A) (A) (A) (A) (A) (A) (A)
                 (A) (A) (A) (A) (A) (A) (A) (A) (A) (A) (A) (A)
                 (A) (A) (A) (A) (A) (A) (A) (A) (A) (A) (A) (A)
                 (A) (A) (A) (A) (A) (A) (A) (A) (A) (A) (A) (A)
                 (A) (A) (A) (A) (A) (A) (A) (A) (A) (A) (A) (A)
                 (A) (A) (A)
 Initial guess <Sx>= 0.0000 <Sy>= 0.0000 <Sz>= 0.5000 <S**2>= 2.7347 S= 1.2276
 Gradient too large for Newton-Raphson -- use scaled steepest descent instead.
 Gradient too large for Newton-Raphson -- use scaled steepest descent instead.
 Gradient too large for Newton-Raphson -- use scaled steepest descent instead.
 Gradient too large for Newton-Raphson -- use scaled steepest descent instead.
 Gradient too large for Newton-Raphson -- use scaled steepest descent instead.
 Gradient too large for Newton-Raphson -- use scaled steepest descent instead.
 Gradient too large for Newton-Raphson -- use scaled steepest descent instead.
 Gradient too large for Newton-Raphson -- use scaled steepest descent instead.
 Gradient too large for Newton-Raphson -- use scaled steepest descent instead.
 Gradient too large for Newton-Raphson -- use scaled steepest descent instead.
 Gradient too large for Newton-Raphson -- use scaled steepest descent instead.
 Gradient too large for Newton-Raphson -- use scaled steepest descent instead.
 Gradient too large for Newton-Raphson -- use scaled steepest descent instead.
 Gradient too large for Newton-Raphson -- use scaled steepest descent instead.
 Gradient too large for Newton-Raphson -- use scaled steepest descent instead.
 Gradient too large for Newton-Raphson -- use scaled steepest descent instead.
 Gradient too large for Newton-Raphson -- use scaled steepest descent instead.
 Gradient too large for Newton-Raphson -- use scaled steepest descent instead.
 Gradient too large for Newton-Raphson -- use scaled steepest descent instead.
 Gradient too large for Newton-Raphson -- use scaled steepest descent instead.
 Gradient too large for Newton-Raphson -- use scaled steepest descent instead.
 Gradient too large for Newton-Raphson -- use scaled steepest descent instead.
 Gradient too large for Newton-Raphson -- use scaled steepest descent instead.
 Gradient too large for Newton-Raphson -- use scaled steepest descent instead.
 Gradient too large for Newton-Raphson -- use scaled steepest descent instead.
 Gradient too large for Newton-Raphson -- use scaled steepest descent instead.
 Gradient too large for Newton-Raphson -- use scaled steepest descent instead.
 Gradient too large for Newton-Raphson -- use scaled steepest descent instead.
 Gradient too large for Newton-Raphson -- use scaled steepest descent instead.
 Gradient too large for Newton-Raphson -- use scaled steepest descent instead.
 Gradient too large for Newton-Raphson -- use scaled steepest descent instead.
 Gradient too large for Newton-Raphson -- use scaled steepest descent instead.
 Gradient too large for Newton-Raphson -- use scaled steepest descent instead.
 Gradient too large for Newton-Raphson -- use scaled steepest descent instead.
 Gradient too large for Newton-Raphson -- use scaled steepest descent instead.
 Gradient too large for Newton-Raphson -- use scaled steepest descent instead.
 Gradient too large for Newton-Raphson -- use scaled steepest descent instead.
 Gradient too large for Newton-Raphson -- use scaled steepest descent instead.
 Gradient too large for Newton-Raphson -- use scaled steepest descent instead.
 Gradient too large for Newton-Raphson -- use scaled steepest descent instead.
 Gradient too large for Newton-Raphson -- use scaled steepest descent instead.
 Gradient too large for Newton-Raphson -- use scaled steepest descent instead.
 Gradient too large for Newton-Raphson -- use scaled steepest descent instead.
 Gradient too large for Newton-Raphson -- use scaled steepest descent instead.
 Gradient too large for Newton-Raphson -- use scaled steepest descent instead.
 Gradient too large for Newton-Raphson -- use scaled steepest descent instead.
 Gradient too large for Newton-Raphson -- use scaled steepest descent instead.
 Gradient too large for Newton-Raphson -- use scaled steepest descent instead.
 Gradient too large for Newton-Raphson -- use scaled steepest descent instead.
 Gradient too large for Newton-Raphson -- use scaled steepest descent instead.
 Gradient too large for Newton-Raphson -- use scaled steepest descent instead.
 Gradient too large for Newton-Raphson -- use scaled steepest descent instead.
 Gradient too large for Newton-Raphson -- use scaled steepest descent instead.
 Gradient too large for Newton-Raphson -- use scaled steepest descent instead.
 Gradient too large for Newton-Raphson -- use scaled steepest descent instead.
 Gradient too large for Newton-Raphson -- use scaled steepest descent instead.
 Gradient too large for Newton-Raphson -- use scaled steepest descent instead.
 Gradient too large for Newton-Raphson -- use scaled steepest descent instead.
 Gradient too large for Newton-Raphson -- use scaled steepest descent instead.
 Gradient too large for Newton-Raphson -- use scaled steepest descent instead.
 Gradient too large for Newton-Raphson -- use scaled steepest descent instead.
 Gradient too large for Newton-Raphson -- use scaled steepest descent instead.
 Gradient too large for Newton-Raphson -- use scaled steepest descent instead.
 Gradient too large for Newton-Raphson -- use scaled steepest descent instead.
 Gradient too large for Newton-Raphson -- use scaled steepest descent instead.
 Gradient too large for Newton-Raphson -- use scaled steepest descent instead.
 Gradient too large for Newton-Raphson -- use scaled steepest descent instead.
 Gradient too large for Newton-Raphson -- use scaled steepest descent instead.
 Gradient too large for Newton-Raphson -- use scaled steepest descent instead.
 Gradient too large for Newton-Raphson -- use scaled steepest descent instead.
 Gradient too large for Newton-Raphson -- use scaled steepest descent instead.
 Gradient too large for Newton-Raphson -- use scaled steepest descent instead.
 Gradient too large for Newton-Raphson -- use scaled steepest descent instead.
 Gradient too large for Newton-Raphson -- use scaled steepest descent instead.
 Gradient too large for Newton-Raphson -- use scaled steepest descent instead.
 Gradient too large for Newton-Raphson -- use scaled steepest descent instead.
 Gradient too large for Newton-Raphson -- use scaled steepest descent instead.
 Gradient too large for Newton-Raphson -- use scaled steepest descent instead.
 Gradient too large for Newton-Raphson -- use scaled steepest descent instead.
 Gradient too large for Newton-Raphson -- use scaled steepest descent instead.
 Gradient too large for Newton-Raphson -- use scaled steepest descent instead.
 Gradient too large for Newton-Raphson -- use scaled steepest descent instead.
 Gradient too large for Newton-Raphson -- use scaled steepest descent instead.
 Gradient too large for Newton-Raphson -- use scaled steepest descent instead.
 Gradient too large for Newton-Raphson -- use scaled steepest descent instead.
 Gradient too large for Newton-Raphson -- use scaled steepest descent instead.
 Gradient too large for Newton-Raphson -- use scaled steepest descent instead.
 Gradient too large for Newton-Raphson -- use scaled steepest descent instead.
 Gradient too large for Newton-Raphson -- use scaled steepest descent instead.
 Gradient too large for Newton-Raphson -- use scaled steepest descent instead.
 Gradient too large for Newton-Raphson -- use scaled steepest descent instead.
 Gradient too large for Newton-Raphson -- use scaled steepest descent instead.
 Gradient too large for Newton-Raphson -- use scaled steepest descent instead.
 Gradient too large for Newton-Raphson -- use scaled steepest descent instead.
 Gradient too large for Newton-Raphson -- use scaled steepest descent instead.
 Gradient too large for Newton-Raphson -- use scaled steepest descent instead.
 Gradient too large for Newton-Raphson -- use scaled steepest descent instead.
 Gradient too large for Newton-Raphson -- use scaled steepest descent instead.
 Gradient too large for Newton-Raphson -- use scaled steepest descent instead.
 Gradient too large for Newton-Raphson -- use scaled steepest descent instead.
 Gradient too large for Newton-Raphson -- use scaled steepest descent instead.
 Gradient too large for Newton-Raphson -- use scaled steepest descent instead.
 Gradient too large for Newton-Raphson -- use scaled steepest descent instead.
 Gradient too large for Newton-Raphson -- use scaled steepest descent instead.
[...]
    35   Atom        0.001317      0.000095     -0.001413
    36   Atom        0.001322      0.000094     -0.001416
    37   Atom        0.001934     -0.001161     -0.000773
    38   Atom       -0.002770     -0.004375      0.007145
    39   Atom       -0.005318     -0.004709      0.010027
    40   Atom       -0.001564     -0.001600      0.003164
    41   Atom       -0.001019     -0.001613      0.002632
    42   Atom       -0.000880     -0.004909      0.005789
    43   Atom       -0.002843     -0.001962      0.004805
    44   Atom       -0.001016     -0.000874      0.001890
    45   Atom       -0.000475     -0.000914      0.001389
    46   Atom        0.001695     -0.002854      0.001159
    47   Atom        0.293037      0.062656     -0.355692
    48   Atom        0.001229     -0.009806      0.008577
    49   Atom        0.000011     -0.008961      0.008949
    50   Atom       -0.007937     -0.007337      0.015274
 --------------------------------------------------------
                        XY            XZ            YZ
 --------------------------------------------------------
     1   Atom        1.116820     -0.354845      0.389515
     2   Atom       -0.000790      0.003323     -0.000731
     3   Atom        0.001189     -0.002029     -0.005161
     4   Atom       -0.001411     -0.006250      0.001172
     5   Atom       -0.002327      0.000034      0.007066
     6   Atom       -0.003929      0.001412     -0.000775
     7   Atom       -0.001490      0.002018     -0.000879
     8   Atom        0.000210     -0.000519      0.001406
     9   Atom        0.006245      0.000286      0.000221
    10   Atom        0.001867     -0.003902     -0.000566
    11   Atom       -0.000390      0.000494     -0.001458
    12   Atom       -0.000309     -0.003140     -0.002809
    13   Atom       -0.004725     -0.001585      0.000610
    14   Atom       -0.001744      0.000576     -0.000337
    15   Atom        0.000182     -0.002436      0.000510
    16   Atom        0.006126      0.000976      0.000872
    17   Atom        0.001257     -0.001414      0.002301
    18   Atom       -0.000765      0.000442      0.000291
    19   Atom       -0.001759     -0.002183      0.002344
    20   Atom       -0.004766      0.000935     -0.001046
    21   Atom        0.001413     -0.000022      0.000214
    22   Atom       -0.000248      0.000037     -0.000115
    23   Atom       -0.002097      0.000303     -0.000441
    24   Atom       -0.000950      0.000474     -0.000228
    25   Atom        0.001597      0.000041      0.000228
    26   Atom       -0.000203      0.000026     -0.000355
    27   Atom        0.002680      0.003119      0.000407
    28   Atom        0.005277      0.002120      0.000985
    29   Atom        0.002593      0.003622      0.000647
    30   Atom       -0.004296      0.002191     -0.002287
    31   Atom        0.005279      0.001807      0.000655
    32   Atom       -0.001881      0.000625     -0.000888
    33   Atom       -0.000916      0.000697     -0.000291
    34   Atom        0.000714      0.000669      0.000167
    35   Atom        0.002025      0.000555      0.000371
    36   Atom        0.002044      0.000579      0.000392
    37   Atom        0.000548      0.000635      0.000187
    38   Atom        0.001309     -0.003011      0.000933
    39   Atom        0.000664      0.000833      0.004235
    40   Atom        0.000231     -0.000382      0.000933
    41   Atom        0.000060     -0.001773     -0.000073
    42   Atom        0.001414     -0.006786     -0.001884
    43   Atom        0.001666      0.003365      0.004396
    44   Atom       -0.000030     -0.000102      0.000624
    45   Atom        0.000059     -0.001042     -0.000154
    46   Atom        0.002624     -0.005427     -0.002438
    47   Atom        0.417401      0.085584      0.148354
    48   Atom        0.019961      0.007717     -0.007633
    49   Atom        0.003200     -0.015787      0.006751
    50   Atom        0.007484     -0.012949      0.001084
 --------------------------------------------------------


 ---------------------------------------------------------------------------------
              Anisotropic Spin Dipole Couplings in Principal Axis System
 ---------------------------------------------------------------------------------

       Atom             a.u.   MegaHertz   Gauss  10(-4) cm-1        Axes

              Baa    -1.7645   -30.548   -10.900   -10.190 -0.5924  0.7838 -0.1863
     1 Fe(57) Bbb     0.6565    11.366     4.056     3.791  0.7807  0.6156  0.1074
              Bcc     1.1080    19.183     6.845     6.399 -0.1989  0.0818  0.9766
 
              Baa    -0.0034    -0.131    -0.047    -0.044  0.8629  0.3589 -0.3558
     2 N(14)  Bbb    -0.0022    -0.085    -0.030    -0.028 -0.2770  0.9247  0.2610
              Bcc     0.0056     0.216     0.077     0.072  0.4227 -0.1267  0.8974
 
              Baa    -0.0040    -0.156    -0.056    -0.052  0.5010  0.5844  0.6383
     3 N(14)  Bbb    -0.0031    -0.121    -0.043    -0.040  0.8356 -0.5186 -0.1811
              Bcc     0.0072     0.277     0.099     0.092 -0.2252 -0.6242  0.7481
 
              Baa    -0.0058    -0.225    -0.080    -0.075  0.6595  0.0101  0.7517
     4 N(14)  Bbb    -0.0014    -0.053    -0.019    -0.018  0.1584  0.9756 -0.1521
              Bcc     0.0072     0.278     0.099     0.093  0.7349 -0.2194 -0.6418
 
              Baa    -0.0067    -0.257    -0.092    -0.086  0.3726  0.7015 -0.6075
     5 N(14)  Bbb    -0.0018    -0.068    -0.024    -0.023  0.9160 -0.1730  0.3620
              Bcc     0.0084     0.325     0.116     0.108 -0.1489  0.6913  0.7071
 
              Baa    -0.0085    -1.147    -0.409    -0.382  0.3905  0.9206  0.0110
     6 C(13)  Bbb     0.0018     0.238     0.085     0.079  0.8670 -0.3636 -0.3408
              Bcc     0.0068     0.909     0.324     0.303  0.3097 -0.1426  0.9401
 
              Baa    -0.0030    -0.401    -0.143    -0.134 -0.3538  0.0913  0.9308
     7 C(13)  Bbb    -0.0006    -0.086    -0.031    -0.029  0.4491  0.8896  0.0835
              Bcc     0.0036     0.487     0.174     0.162  0.8204 -0.4476  0.3558
 
              Baa    -0.0058    -0.781    -0.279    -0.260 -0.0591  0.9920 -0.1116
     8 C(13)  Bbb    -0.0013    -0.178    -0.063    -0.059  0.9966  0.0652  0.0514
              Bcc     0.0071     0.958     0.342     0.320 -0.0582  0.1082  0.9924
 
              Baa    -0.0057    -0.763    -0.272    -0.254 -0.1089  0.0375  0.9933
     9 C(13)  Bbb    -0.0044    -0.596    -0.213    -0.199  0.8635 -0.4915  0.1132
              Bcc     0.0101     1.358     0.485     0.453  0.4925  0.8701  0.0211
 
              Baa    -0.0060    -0.806    -0.288    -0.269  0.8861 -0.3776  0.2687
    10 C(13)  Bbb    -0.0015    -0.204    -0.073    -0.068  0.3205  0.9181  0.2334
              Bcc     0.0075     1.011     0.361     0.337 -0.3348 -0.1207  0.9345
 
              Baa    -0.0029    -0.385    -0.137    -0.128 -0.1821  0.2192  0.9585
    11 C(13)  Bbb    -0.0007    -0.097    -0.035    -0.032  0.9766  0.1537  0.1504
              Bcc     0.0036     0.482     0.172     0.161 -0.1144  0.9635 -0.2421
 
              Baa    -0.0087    -1.173    -0.418    -0.391  0.9685  0.0835  0.2348
    12 C(13)  Bbb     0.0013     0.173     0.062     0.058 -0.1879  0.8636  0.4678
              Bcc     0.0075     1.000     0.357     0.334 -0.1637 -0.4972  0.8521
 
              Baa    -0.0068    -0.915    -0.326    -0.305  0.3916  0.9201  0.0081
    13 C(13)  Bbb     0.0000     0.005     0.002     0.002  0.2367 -0.1093  0.9654
              Bcc     0.0068     0.910     0.325     0.304  0.8892 -0.3762 -0.2606
 
              Baa    -0.0027    -0.366    -0.131    -0.122 -0.0857  0.0665  0.9941
    14 C(13)  Bbb    -0.0008    -0.111    -0.040    -0.037  0.4565  0.8895 -0.0201
              Bcc     0.0036     0.477     0.170     0.159  0.8856 -0.4521  0.1066
 
              Baa    -0.0045    -0.610    -0.218    -0.203 -0.0668  0.9940 -0.0870
    15 C(13)  Bbb    -0.0003    -0.041    -0.015    -0.014  0.8203  0.1044  0.5624
              Bcc     0.0049     0.651     0.232     0.217 -0.5681  0.0338  0.8223
 
              Baa    -0.0060    -0.802    -0.286    -0.267 -0.2706  0.0641  0.9605
    16 C(13)  Bbb    -0.0043    -0.575    -0.205    -0.192  0.8346 -0.4816  0.2673
              Bcc     0.0103     1.376     0.491     0.459  0.4797  0.8740  0.0768
 
              Baa    -0.0047    -0.626    -0.223    -0.209  0.8919 -0.3782  0.2480
    17 C(13)  Bbb    -0.0004    -0.049    -0.018    -0.016  0.4425  0.8430 -0.3059
              Bcc     0.0050     0.675     0.241     0.225 -0.0934  0.3826  0.9192
 
              Baa    -0.0025    -0.340    -0.121    -0.113 -0.3107 -0.0874  0.9465
    18 C(13)  Bbb    -0.0009    -0.126    -0.045    -0.042  0.9359  0.1455  0.3207
              Bcc     0.0035     0.466     0.166     0.156 -0.1657  0.9855  0.0366
 
              Baa    -0.0068    -0.913    -0.326    -0.304  0.9617  0.0877  0.2596
    19 C(13)  Bbb    -0.0001    -0.019    -0.007    -0.006 -0.1995 -0.4251  0.8829
              Bcc     0.0069     0.931     0.332     0.311 -0.1878  0.9009  0.3913
 
              Baa    -0.0039    -0.525    -0.187    -0.175 -0.2458 -0.0212  0.9691
    20 C(13)  Bbb    -0.0032    -0.425    -0.152    -0.142  0.7795  0.5899  0.2106
              Bcc     0.0071     0.949     0.339     0.317 -0.5762  0.8072 -0.1284
 
              Baa    -0.0013    -0.683    -0.244    -0.228  0.8217 -0.4553  0.3427
    21 H(1)   Bbb    -0.0009    -0.485    -0.173    -0.162 -0.3286  0.1127  0.9377
              Bcc     0.0022     1.168     0.417     0.390  0.4656  0.8832  0.0570
 
              Baa    -0.0009    -0.502    -0.179    -0.167  0.7153  0.0354 -0.6979
    22 H(1)   Bbb    -0.0009    -0.474    -0.169    -0.158  0.6928  0.0945  0.7149
              Bcc     0.0018     0.976     0.348     0.326 -0.0913  0.9949 -0.0431
 
              Baa    -0.0015    -0.813    -0.290    -0.271  0.7956  0.5891  0.1411
    23 H(1)   Bbb    -0.0015    -0.776    -0.277    -0.259 -0.1857  0.0155  0.9825
              Bcc     0.0030     1.589     0.567     0.530 -0.5766  0.8079 -0.1217
 
              Baa    -0.0009    -0.498    -0.178    -0.166  0.0374  0.5152  0.8563
    24 H(1)   Bbb    -0.0009    -0.472    -0.168    -0.157  0.4349  0.7631 -0.4781
              Bcc     0.0018     0.970     0.346     0.324  0.8997 -0.3903  0.1955
 
              Baa    -0.0014    -0.754    -0.269    -0.251  0.8536 -0.4969  0.1560
    25 H(1)   Bbb    -0.0009    -0.488    -0.174    -0.163 -0.1689  0.0193  0.9854
              Bcc     0.0023     1.241     0.443     0.414  0.4927  0.8676  0.0674
 
              Baa    -0.0010    -0.510    -0.182    -0.170  0.0114  0.1302  0.9914
    26 H(1)   Bbb    -0.0009    -0.464    -0.166    -0.155  0.9970  0.0741 -0.0212
              Bcc     0.0018     0.975     0.348     0.325 -0.0762  0.9887 -0.1290
 
              Baa    -0.0060    -0.807    -0.288    -0.269 -0.2151  0.0784  0.9734
    27 C(13)  Bbb    -0.0042    -0.568    -0.203    -0.190 -0.1697  0.9786 -0.1163
              Bcc     0.0103     1.376     0.491     0.459  0.9617  0.1902  0.1972
 
              Baa    -0.0053    -0.713    -0.255    -0.238 -0.2623  0.0696  0.9625
    28 C(13)  Bbb    -0.0030    -0.398    -0.142    -0.133 -0.5561  0.8042 -0.2097
              Bcc     0.0083     1.111     0.396     0.371  0.7886  0.5903  0.1722
 
              Baa    -0.0056    -0.753    -0.269    -0.251 -0.2506  0.0134  0.9680
    29 C(13)  Bbb    -0.0044    -0.584    -0.208    -0.195 -0.1808  0.9817 -0.0604
              Bcc     0.0100     1.337     0.477     0.446  0.9510  0.1902  0.2436
 
              Baa    -0.0055    -0.732    -0.261    -0.244 -0.2753  0.1052  0.9556
    30 C(13)  Bbb    -0.0023    -0.305    -0.109    -0.102  0.7890  0.5926  0.1621
              Bcc     0.0077     1.037     0.370     0.346 -0.5492  0.7986 -0.2462
 
              Baa    -0.0055    -0.737    -0.263    -0.246 -0.2314  0.0908  0.9686
    31 C(13)  Bbb    -0.0028    -0.380    -0.136    -0.127 -0.5553  0.8052 -0.2081
              Bcc     0.0083     1.117     0.399     0.373  0.7989  0.5860  0.1359
 
              Baa    -0.0015    -0.798    -0.285    -0.266 -0.2824  0.1113  0.9528
    32 H(1)   Bbb    -0.0014    -0.753    -0.269    -0.251  0.7883  0.5929  0.1644
              Bcc     0.0029     1.551     0.554     0.517 -0.5466  0.7976 -0.2552
 
              Baa    -0.0009    -0.505    -0.180    -0.168 -0.3502 -0.1041  0.9309
    33 H(1)   Bbb    -0.0009    -0.463    -0.165    -0.155  0.3321  0.9154  0.2273
              Bcc     0.0018     0.968     0.345     0.323  0.8758 -0.3888  0.2860
 
              Baa    -0.0014    -0.742    -0.265    -0.247 -0.1969  0.9791 -0.0504
    34 H(1)   Bbb    -0.0009    -0.484    -0.173    -0.162 -0.2258  0.0048  0.9742
              Bcc     0.0023     1.226     0.437     0.409  0.9541  0.2032  0.2202
 
              Baa    -0.0015    -0.813    -0.290    -0.271 -0.2809  0.1337  0.9504
    35 H(1)   Bbb    -0.0014    -0.747    -0.266    -0.249 -0.5389  0.7974 -0.2715
              Bcc     0.0029     1.560     0.557     0.520  0.7941  0.5884  0.1520
 
              Baa    -0.0015    -0.820    -0.293    -0.273 -0.2827  0.1258  0.9509
    36 H(1)   Bbb    -0.0014    -0.756    -0.270    -0.252 -0.5397  0.7987 -0.2661
              Bcc     0.0030     1.576     0.562     0.526  0.7930  0.5884  0.1579
 
              Baa    -0.0013    -0.678    -0.242    -0.226 -0.1254  0.9707 -0.2049
    37 H(1)   Bbb    -0.0009    -0.482    -0.172    -0.161 -0.2462  0.1696  0.9543
              Bcc     0.0022     1.160     0.414     0.387  0.9611  0.1701  0.2177
 
              Baa    -0.0056    -0.215    -0.077    -0.072 -0.5805  0.7904 -0.1955
    38 N(14)  Bbb    -0.0024    -0.094    -0.034    -0.031  0.7704  0.6109  0.1825
              Bcc     0.0080     0.309     0.110     0.103 -0.2637  0.0447  0.9636
 
              Baa    -0.0061    -0.818    -0.292    -0.273 -0.5100  0.8380 -0.1938
    39 C(13)  Bbb    -0.0051    -0.687    -0.245    -0.229  0.8581  0.4803 -0.1815
              Bcc     0.0112     1.505     0.537     0.502  0.0590  0.2589  0.9641
 
              Baa    -0.0020    -0.077    -0.027    -0.026 -0.5886  0.7868 -0.1859
    40 N(14)  Bbb    -0.0014    -0.053    -0.019    -0.018  0.8056  0.5900 -0.0536
              Bcc     0.0034     0.130     0.046     0.043 -0.0675  0.1813  0.9811
 
              Baa    -0.0017    -0.234    -0.084    -0.078  0.9068 -0.2131  0.3638
    41 C(13)  Bbb    -0.0016    -0.216    -0.077    -0.072  0.1908  0.9769  0.0966
              Bcc     0.0034     0.450     0.161     0.150 -0.3760 -0.0181  0.9265
 
              Baa    -0.0054    -0.725    -0.259    -0.242 -0.5412  0.8191 -0.1902
    42 C(13)  Bbb    -0.0050    -0.667    -0.238    -0.222  0.6575  0.5532  0.5115
              Bcc     0.0104     1.392     0.497     0.464 -0.5242 -0.1518  0.8379
 
              Baa    -0.0041    -2.204    -0.786    -0.735 -0.4593  0.8533 -0.2469
    43 H(1)   Bbb    -0.0041    -2.193    -0.783    -0.732  0.8283  0.3111 -0.4660
              Bcc     0.0082     4.397     1.569     1.467  0.3208  0.4185  0.8497
 
              Baa    -0.0010    -0.546    -0.195    -0.182  0.8846  0.4613 -0.0679
    44 H(1)   Bbb    -0.0010    -0.536    -0.191    -0.179 -0.4650  0.8619 -0.2022
              Bcc     0.0020     1.082     0.386     0.361 -0.0348  0.2104  0.9770
 
              Baa    -0.0009    -0.504    -0.180    -0.168  0.8266  0.4005  0.3954
    45 H(1)   Bbb    -0.0009    -0.491    -0.175    -0.164 -0.3884  0.9144 -0.1142
              Bcc     0.0019     0.995     0.355     0.332 -0.4072 -0.0592  0.9114
 
              Baa    -0.0041    -2.167    -0.773    -0.723 -0.5916  0.7638 -0.2582
    46 H(1)   Bbb    -0.0040    -2.121    -0.757    -0.708  0.4190  0.5648  0.7109
              Bcc     0.0080     4.289     1.530     1.431  0.6889  0.3124 -0.6541
 
              Baa    -0.4087    29.573    10.552     9.865  0.1253 -0.3971  0.9092
    47 O(17)  Bbb    -0.2274    16.457     5.872     5.489 -0.6151  0.6879  0.3853
              Bcc     0.6361   -46.030   -16.425   -15.354  0.7785  0.6075  0.1580
 
              Baa    -0.0281     2.037     0.727     0.679 -0.5888  0.7578  0.2812
    48 O(17)  Bbb     0.0113    -0.818    -0.292    -0.273 -0.0525 -0.3831  0.9222
              Bcc     0.0168    -1.219    -0.435    -0.406  0.8066  0.5282  0.2654
 
              Baa    -0.0174    -0.669    -0.239    -0.223 -0.5814  0.6328 -0.5113
    49 N(14)  Bbb    -0.0039    -0.152    -0.054    -0.051  0.5707  0.7652  0.2981
              Bcc     0.0213     0.821     0.293     0.274 -0.5799  0.1185  0.8060
 
              Baa    -0.0185     1.339     0.478     0.447  0.7742 -0.5493  0.3144
    50 O(17)  Bbb    -0.0027     0.196     0.070     0.065  0.4726  0.8322  0.2901
              Bcc     0.0212    -1.535    -0.548    -0.512 -0.4210 -0.0760  0.9039
 

 ---------------------------------------------------------------------------------

 1\1\GINC-COMPUTE-1-39\FOpt\UB3LYP\Gen\C23H16Fe1N7O3(2)\CARABETL\11-Sep
 -2012\0\\# ub3lyp chkbasis scf=(qc,maxcycle=999) guess=read geom=allch
 eckpoint opt=(modredundant,maxcycle=200)\\NOD_iso_150_250_s1 FePImOONO
  wavefunction from broken-symmetry guess\\0,2\Fe,0.0107233052,-0.02784
 10241,-0.0006702795\N,0.0282213735,-0.0116254192,2.0215200798\N,2.0324
 748951,0.0031705162,0.0062799451\N,0.0072865418,-0.1425730837,-2.01005
 43627\N,-1.9960070233,-0.1596281162,0.0021916497\C,-1.0834232192,-0.27
 92951531,-2.8285086823\C,-0.667220056,-0.2727469549,-4.2086783738\C,0.
 6830379543,-0.1171665919,-4.2117056858\C,-2.8120798837,-0.0497227973,1
 .0950700874\C,-4.1944927494,-0.1184196222,0.6859472797\C,-4.1978849635
 ,-0.2734427094,-0.6634629644\C,-2.8185896158,-0.2855054388,-1.08453969
 41\C,1.1224788594,0.0097573047,2.8422931633\C,0.7045630086,0.095918339
 8,4.2209507197\C,-0.6525623252,0.1476777887,4.2164799919\C,2.842387725
 9,0.0998388939,-1.0931971163\C,4.223932839,0.1790654629,-0.68265324\C,
 4.2337602515,0.1263400624,0.6746514605\C,2.85793717,0.0268033469,1.097
 7406954\C,2.4441005672,0.002227528,2.421506306\H,5.0625488254,0.268444
 3122,-1.3576244721\H,5.0819247241,0.1657751834,1.3423143215\H,3.211879
 914,0.0286033946,3.1853737023\H,1.3753006153,0.1272922631,5.0670158433
 \H,-5.0386937516,-0.0529412751,1.3566525437\H,-5.0454344588,-0.3576764
 799,-1.3276240212\C,-1.0679242415,0.0793374522,2.8353809774\C,-2.38990
 35914,0.0732515597,2.4120794824\C,1.0982174052,-0.0399932809,-2.832415
 1237\C,-2.4008099709,-0.3697600844,-2.4040263667\C,2.4165272694,0.0849
 482926,-2.4141838646\H,-3.1653829636,-0.4660588752,-3.1654261757\H,-1.
 3346703785,-0.360585015,-5.0533359757\H,1.3492521948,-0.0521212545,-5.
 0594702625\H,3.1754382732,0.1690304076,-3.1827190372\H,-3.1563766216,0
 .154436935,3.1735193617\H,-1.3245208339,0.2265767244,5.058531757\N,0.0
 983358977,-2.1161242683,0.0743986267\C,0.8795380056,-2.8815098794,-0.6
 613749484\N,0.6842715716,-4.1847709834,-0.3511718325\C,-0.276494109,-4
 .2495358252,0.6385823144\C,-0.6287909023,-2.9550959388,0.8907784985\H,
 1.5779082636,-2.5374750072,-1.4050878307\H,1.1604414547,-4.9654372302,
 -0.7733612933\H,-0.6105175481,-5.1816429441,1.0596987029\H,-1.34699759
 97,-2.5718582837,1.5939637445\O,0.0269243263,1.7883598165,0.0436562636
 \O,-0.9865738985,2.4103982437,-0.8706150698\N,-0.5089858231,3.20610598
 1,-1.9445065144\O,0.6528632959,3.2871237264,-2.0765643313\\Version=EM6
 4L-G09RevB.01\State=2-A\HF=-1618.7367063\S2=0.779107\S2-1=0.\S2A=0.750
 37\RMSD=0.000e+00\RMSF=2.802e-03\Dipole=0.3981096,-3.6667277,0.0645196
 \Quadrupole=2.8145104,-4.9497758,2.1352655,-2.946833,-2.5540199,4.5813
 948\PG=C01 [X(C23H16Fe1N7O3)]\\@


 LIFE IS SO UNCERTAIN - EAT DESSERT FIRST.
 Job cpu time:  9 days 19 hours 57 minutes 31.9 seconds.
 File lengths (MBytes):  RWF=    383 Int=      0 D2E=      0 Chk=     88 Scr=      1
 Normal termination of Gaussian 09 at Tue Sep 11 22:18:22 2012.
